Job red_elim_complex_L1_PL274_2 started on bp1-compute154.data.bp.acrc.priv at Thu Mar 21 22:59:01 2024
jobid: bp1-compute154-0-65fcbbb2

  +--------------------------------------------------------------------+
  |  Jaguar version 11.4, release 135                                  |
  |                                                                    |
  |  Copyright Schrodinger, Inc.                                       |
  |  All Rights Reserved.                                              |
  |                                                                    |
  |  The following have contributed to Jaguar (listed alphabetically): |
  |  Mike Beachy, Art Bochevarov, Dale Braden, Yixiang Cao,            |
  |  Alan Chien, Chris Cortis, Rich Friesner, Bill Goddard,            |
  |  Hod Greeley, Tom Hughes, Leif Jacobson, Jean-Marc Langlois,       |
  |  Daniel Levine, Daniel Mainz, Rob Murphy, Dean Philipp,            |
  |  Tom Pollard, Murco Ringnalda, Mark Watson, Haoyu Yu.              |
  |                                                                    |
  |  Use of this program should be acknowledged in publications as:    |
  |                                                                    |
  |  Jaguar, version 11.4, Schrodinger, Inc., New York, NY, 2021.      |
  |                                                                    |
  |  A. D. Bochevarov, E. Harder, T. F. Hughes, J. R. Greenwood,       |
  |  D. A. Braden, D. M. Philipp, D. Rinaldo, M. D. Halls,             |
  |  J. Zhang, R. A. Friesner, "Jaguar: A High-Performance Quantum     |
  |  Chemistry Software Program with Strengths in Life and Materials   |
  |  Sciences", Int. J. Quantum Chem., 2013, 113(18), 2110-2142.       |
  +--------------------------------------------------------------------+
  
  start of program pre
  
  Job name: red_elim_complex_L1_PL274_2
  Executables used: /sw/apps/schrodinger2021-4/jaguar-v11.4/bin/Linux-x86_64
  Temporary files : /tmp/ar21627/red_elim_complex_L1_PL274_2
  Maestro file (input):  red_elim_complex_L1_PL274_2.mae
  Maestro file (output): red_elim_complex_L1_PL274_2.01.mae
  
 Contents of input file: &gen section only
 ----------------Contents start----------------
&gen
dftname=b3pw91-d3
basis=6-31G*
numd=5
ip11=2
iaccg=3
isolv=2
igeopt=1
solvent=benzene
ifreq=1
&
 -----------------Contents end-----------------
 
  basis set:             non_standard                    
  net molecular charge:    0
  multiplicity:            1
  
  This run will use ECP on 1 atom
  number of basis functions....          761
  
 Input geometry:
                                   angstroms
  atom               x                 y                 z
  P1            0.2643208315     -0.1452980341      0.2839031894 
  Pd2          -0.1698781505      0.0946927977      2.5256709044 
  N3            2.2713611089      0.5022698974      5.6836303794 
  C4           -1.8662836094      0.5294017082      5.0349237539 
  C5           -1.2581786322      1.5288365070      5.7653760631 
  C6            0.1283216386      1.5104129811      5.9196268575 
  C7            0.9132489971      0.4810214498      5.3876451468 
  C8            0.2754892325     -0.5712507932      4.6681079565 
  C9           -1.1342904521     -0.5334342223      4.4834120121 
  F10          -3.2101878304      0.5401649997      4.8875785456 
  H11          -1.8581253356      2.3064569290      6.2213542190 
  H12           0.6083429350      2.3110306187      6.4807527814 
  H13           0.8035627949     -1.5047815750      4.4992294787 
  H14          -1.6703502693     -1.4118020930      4.1287013805 
  H15           2.5220011125      1.1488821141      6.4215803734 
  C16           5.6046665484     -1.6272135849      4.2627744279 
  C17           4.4261987502     -1.6157382231      3.5175504072 
  C18           3.3021213045     -0.9212216946      3.9536461536 
  C19           3.3381990418     -0.2270069547      5.1754825199 
  C20           4.5332743893     -0.2297143882      5.9219333691 
  C21           5.6501781881     -0.9160742994      5.4664442870 
  H22           6.4741947310     -2.1762908129      3.9115572367 
  H23           4.3760093234     -2.1506988354      2.5708793848 
  H24           2.4128196755     -0.8837602168      3.3316895485 
  H25           4.5760618494      0.3114412786      6.8689379762 
  H26           6.5610366135     -0.9018907669      6.0633198851 
  C27           2.1124479542     -0.4121212076     -0.1727608943 
  C28          -0.7547807723     -1.6114028793     -0.4499031006 
  C29          -0.2563673360      1.3367136369     -0.7043912826 
  C30           2.5170979101     -0.3086580926     -1.6510421213 
  C31           2.5159249137     -1.7931495671      0.3648804011 
  C32          -0.7480410791     -2.7511860407      0.5868264794 
  C33          -2.2007934680     -1.1188350700     -0.5752254080 
  C34          -0.1404824320      1.3442987514     -2.1064002124 
  C35          -0.4872914445      2.4450298498     -2.8819503479 
  C36          -0.9666000251      3.5942101886     -2.2581250425 
  C37          -1.1168871020      3.5970616737     -0.8763367539 
  C38          -0.7915762951      2.4863845333     -0.0745095181 
  C39          -1.1420225821      2.7055286810      1.3779674103 
  C40          -2.4920628675      2.5794893801      1.7685205681 
  C41          -2.9246790878      3.1629006630      2.9623768487 
  C42          -2.0654829312      3.8746085030      3.7930288287 
  C43          -0.7196438763      3.9384805659      3.4223562475 
  C44          -0.2424201070      3.3760429605      2.2406137362 
  C45           1.2166153065      3.5457867099      1.8665215018 
  C46           1.5096830490      4.9862494813      1.4300619731 
  C47          -3.5092715685      1.8536648937      0.9087354953 
  C48          -4.2253598773      0.7580001626      1.7093158385 
  C49          -2.5396960167      4.6267905925      5.0258906834 
  C50           2.1593670257      3.0984959975      2.9876913434 
  C51          -4.5104570469      2.8276945490      0.2753142025 
  C52          -3.8866345043      4.1434075576      5.5718186130 
  C53          -2.5908453273      6.1358669836      4.7335854979 
  H54           1.9908480005     -1.0123812396     -2.3007039313 
  H55           2.3682049894      0.7032451568     -2.0403234022 
  H56           2.1763136155     -1.9382576284      1.3955366139 
  H57           2.1188482501     -2.6102264179     -0.2440026584 
  H58           0.2399362203     -3.2001156984      0.7186390234 
  H59          -1.0818490414     -2.3860078087      1.5649877467 
  H60          -2.5616175095     -0.7394542532      0.3835906288 
  H61          -2.3070768245     -0.3296869802     -1.3271695402 
  H62           0.2303331887      0.4625435173     -2.6134241629 
  H63          -0.3803264943      2.4013299606     -3.9640758471 
  H64          -1.2353895848      4.4740867571     -2.8391066418 
  H65          -1.5162763450      4.4795660013     -0.3822043723 
  H66          -3.9716970224      3.0654346449      3.2333067575 
  H67          -0.0234616033      4.4646401175      4.0743345874 
  H68           1.4000487374      2.8981873670      1.0062051796 
  H69           1.3143890422      5.6896328477      2.2493473714 
  H70           0.8790218760      5.2724076772      0.5806480996 
  H71           2.5597775441      5.0968969040      1.1307491846 
  H72          -2.9667583871      1.3724991518      0.0916373681 
  H73          -4.8838109816      1.1817501716      2.4759369733 
  H74          -4.8408671987      0.1356503115      1.0475655909 
  H75          -3.5000387970      0.1182092629      2.2241795178 
  H76          -1.7799925802      4.4776287823      5.8093386764 
  H77           2.1013081931      3.7651965951      3.8570891907 
  H78           3.1990187259      3.0984948490      2.6379996044 
  H79           1.9083672605      2.0880917124      3.3249361336 
  H80          -5.0710986725      3.3738702981      1.0438733035 
  H81          -5.2332838853      2.2898661609     -0.3519071149 
  H82          -3.9933979601      3.5624712754     -0.3521632891 
  H83          -4.7096339370      4.4231236705      4.9008983016 
  H84          -4.0905359113      4.6026962692      6.5464484897 
  H85          -3.9121447827      3.0536209955      5.6887030502 
  H86          -3.3237950457      6.3463387819      3.9441688527 
  H87          -1.6171240309      6.5080236674      4.3939377503 
  H88          -2.8802312209      6.6996731816      5.6298202593 
  C89          -0.3135521124     -2.1798663282     -1.8043200687 
  H90          -0.9982293934     -2.9931330422     -2.0836099505 
  H91          -0.3587345010     -1.4403641861     -2.6088266095 
  H92           0.6929481939     -2.6053506457     -1.7779419797 
  C93           2.9097531853      0.6579087706      0.5865109172 
  H94           3.9849755310      0.4631402304      0.4698294975 
  H95           2.7109874379      1.6584689529      0.1868997585 
  H96           2.6817332949      0.6615566805      1.6553231373 
  H97           3.5905123426     -0.5319836546     -1.7345785450 
  H98           3.6096214798     -1.8801594171      0.3478967932 
  H99          -1.4324339961     -3.5455288767      0.2550494835 
  H100         -2.8493729248     -1.9557221172     -0.8694638214 
   
  principal moments of inertia:
        amu*angstrom^2:     6232.89817     7110.38287     9600.81739
                g*cm^2: 1.03499696E-36 1.18070671E-36 1.59425304E-36
   
  rotational constants:
               cm^(-1):      0.00270462      0.00237085      0.00175585
                   GHz:      0.08108251      0.07107620      0.05263916
   
  Molecular weight:     717.31 amu
   
  Stoichiometry: PdC41PNH55F
  Molecular Point Group: C1      
  Point Group used: C1
  
 
Number of optimization coordinates:   335
Number of independent coordinates:    335
Number of non-redundant coordinates:  294
Number of frozen coordinates:           0
Number of harmonic constraints:         0
 
Number of geometric degrees of freedom:   294
Maximum geometric degrees of freedom:     294
 " " " " " excluding dummy atoms:         294
 
 
  bond lengths (angstroms):
 
 P1      -Pd2     :   2.296007      P1      -C27     :   1.922319
 P1      -C28     :   1.930415      P1      -C29     :   1.855856
 Pd2     -C8      :   2.287328      Pd2     -C9      :   2.270988
 N3      -C7      :   1.390154      N3      -H15     :   1.012669
 N3      -C19     :   1.388597      C4      -C5      :   1.379211
 C4      -C9      :   1.403424      C4      -F10     :   1.352000
 C5      -C6      :   1.395176      C5      -H11     :   1.082841
 C6      -C7      :   1.399558      C6      -H12     :   1.089161
 C7      -C8      :   1.425394      C8      -C9      :   1.422330
 C8      -H13     :   1.085754      C9      -H14     :   1.088444
 C16     -C17     :   1.394373      C16     -C21     :   1.398789
 C16     -H22     :   1.086701      C17     -C18     :   1.391432
 C17     -H23     :   1.088526      C18     -C19     :   1.405745
 C18     -H24     :   1.085859      C19     -C20     :   1.409043
 C20     -C21     :   1.387816      C20     -H25     :   1.091558
 C21     -H26     :   1.089094      C27     -C30     :   1.536152
 C27     -C31     :   1.535933      C27     -C93     :   1.535302
 C28     -C32     :   1.540766      C28     -C33     :   1.532737
 C28     -C89     :   1.533714      C29     -C34     :   1.406811
 C29     -C38     :   1.415960      C30     -H54     :   1.092806
 C30     -H55     :   1.094375      C30     -H97     :   1.099578
 C31     -H56     :   1.094826      C31     -H57     :   1.093628
 C31     -H98     :   1.097284      C32     -H58     :   1.093166
 C32     -H59     :   1.096167      C32     -H99     :   1.099750
 C33     -H60     :   1.092452      C33     -H61     :   1.095204
 C33     -H100    :   1.098914      C34     -C35     :   1.390454
 C34     -H62     :   1.082622      C35     -C36     :   1.392663
 C35     -H63     :   1.088277      C36     -C37     :   1.389940
 C36     -H64     :   1.088104      C37     -C38     :   1.407962
 C37     -H65     :   1.087425      C38     -C39     :   1.510141
 C39     -C40     :   1.411037      C39     -C44     :   1.415285
 C40     -C41     :   1.397433      C40     -C47     :   1.516827
 C41     -C42     :   1.390945      C41     -H66     :   1.085886
 C42     -C43     :   1.397412      C42     -C49     :   1.520067
 C43     -C44     :   1.393052      C43     -H67     :   1.089307
 C44     -C45     :   1.515765      C45     -C46     :   1.533401
 C45     -C50     :   1.531624      C45     -H68     :   1.092326
 C46     -H69     :   1.097322      C46     -H70     :   1.095958
 C46     -H71     :   1.097511      C47     -C48     :   1.534338
 C47     -C51     :   1.533730      C47     -H72     :   1.092470
 C48     -H73     :   1.095824      C48     -H74     :   1.097307
 C48     -H75     :   1.095677      C49     -C52     :   1.531646
 C49     -C53     :   1.537976      C49     -H76     :   1.101449
 C50     -H77     :   1.097139      C50     -H78     :   1.096886
 C50     -H79     :   1.094373      C51     -H80     :   1.096955
 C51     -H81     :   1.097791      C51     -H82     :   1.095890
 C52     -H83     :   1.098045      C52     -H84     :   1.096552
 C52     -H85     :   1.096334      C53     -H86     :   1.097585
 C53     -H87     :   1.096355      C53     -H88     :   1.097660
 C89     -H90     :   1.099176      C89     -H91     :   1.093680
 C89     -H92     :   1.093058      C93     -H94     :   1.098932
 C93     -H95     :   1.095590      C93     -H96     :   1.092871
 
  bond angles:
 
 C27     -P1      -Pd2     : 115.357644  C28     -P1      -Pd2     : 110.530043
 C28     -P1      -C27     : 108.169122  C29     -P1      -Pd2     : 112.545695
 C29     -P1      -C27     : 104.718614  C29     -P1      -C28     : 104.829458
 C8      -Pd2     -P1      : 147.916433  C9      -Pd2     -P1      : 153.265373
 C9      -Pd2     -C8      :  36.360935  H15     -N3      -C7      : 113.998635
 C19     -N3      -C7      : 131.654255  C19     -N3      -H15     : 114.321811
 C9      -C4      -C5      : 121.799116  F10     -C4      -C5      : 119.354912
 F10     -C4      -C9      : 118.793516  C6      -C5      -C4      : 119.153540
 H11     -C5      -C4      : 119.941868  H11     -C5      -C6      : 120.899254
 C7      -C6      -C5      : 121.670930  H12     -C6      -C5      : 119.028067
 H12     -C6      -C7      : 119.295209  C6      -C7      -N3      : 117.112545
 C8      -C7      -N3      : 123.771183  C8      -C7      -C6      : 118.941844
 C7      -C8      -Pd2     : 110.182320  C9      -C8      -Pd2     :  71.194140
 C9      -C8      -C7      : 119.301257  H13     -C8      -Pd2     : 101.498323
 H13     -C8      -C7      : 119.711661  H13     -C8      -C9      : 118.995239
 C4      -C9      -Pd2     : 110.536429  C8      -C9      -Pd2     :  72.444925
 C8      -C9      -C4      : 119.083262  H14     -C9      -Pd2     :  98.709023
 H14     -C9      -C4      : 118.838268  H14     -C9      -C8      : 120.598403
 C21     -C16     -C17     : 118.895521  H22     -C16     -C17     : 120.509674
 H22     -C16     -C21     : 120.594308  C18     -C17     -C16     : 121.290033
 H23     -C17     -C16     : 119.981880  H23     -C17     -C18     : 118.726331
 C19     -C18     -C17     : 119.879242  H24     -C18     -C17     : 119.955308
 H24     -C18     -C19     : 120.120824  C18     -C19     -N3      : 123.897629
 C20     -C19     -N3      : 117.307527  C20     -C19     -C18     : 118.768343
 C21     -C20     -C19     : 120.641387  H25     -C20     -C19     : 119.465287
 H25     -C20     -C21     : 119.892953  C20     -C21     -C16     : 120.508857
 H26     -C21     -C16     : 120.360074  H26     -C21     -C20     : 119.128574
 C30     -C27     -P1      : 118.197497  C31     -C27     -P1      : 107.109659
 C31     -C27     -C30     : 109.160584  C93     -C27     -P1      : 106.561851
 C93     -C27     -C30     : 106.988136  C93     -C27     -C31     : 108.489456
 C32     -C28     -P1      : 107.682278  C33     -C28     -P1      : 106.562423
 C33     -C28     -C32     : 107.269879  C89     -C28     -P1      : 117.730379
 C89     -C28     -C32     : 108.588090  C89     -C28     -C33     : 108.561104
 C34     -C29     -P1      : 120.790759  C38     -C29     -P1      : 121.167212
 C38     -C29     -C34     : 118.039771  H54     -C30     -C27     : 113.695163
 H55     -C30     -C27     : 111.638439  H55     -C30     -H54     : 108.569037
 H97     -C30     -C27     : 108.456241  H97     -C30     -H54     : 107.106391
 H97     -C30     -H55     : 107.072847  H56     -C31     -C27     : 111.543776
 H57     -C31     -C27     : 112.427123  H57     -C31     -H56     : 108.208263
 H98     -C31     -C27     : 109.130051  H98     -C31     -H56     : 108.254798
 H98     -C31     -H57     : 107.099610  H58     -C32     -C28     : 112.884814
 H59     -C32     -C28     : 110.649900  H59     -C32     -H58     : 107.724072
 H99     -C32     -C28     : 109.183977  H99     -C32     -H58     : 107.589057
 H99     -C32     -H59     : 108.682449  H60     -C33     -C28     : 110.575422
 H61     -C33     -C28     : 112.287239  H61     -C33     -H60     : 108.681750
 H100    -C33     -C28     : 109.509351  H100    -C33     -H60     : 107.730129
 H100    -C33     -H61     : 107.916487  C35     -C34     -C29     : 122.655464
 H62     -C34     -C29     : 119.377030  H62     -C34     -C35     : 117.967355
 C36     -C35     -C34     : 119.289899  H63     -C35     -C34     : 119.888336
 H63     -C35     -C36     : 120.821648  C37     -C36     -C35     : 118.961107
 H64     -C36     -C35     : 120.870835  H64     -C36     -C37     : 120.161524
 C38     -C37     -C36     : 122.653295  H65     -C37     -C36     : 119.545731
 H65     -C37     -C38     : 117.792875  C37     -C38     -C29     : 118.326611
 C39     -C38     -C29     : 129.301262  C39     -C38     -C37     : 112.312388
 C40     -C39     -C38     : 118.377813  C44     -C39     -C38     : 120.496856
 C44     -C39     -C40     : 118.800966  C41     -C40     -C39     : 119.694003
 C47     -C40     -C39     : 121.835280  C47     -C40     -C41     : 118.451927
 C42     -C41     -C40     : 122.179647  H66     -C41     -C40     : 118.305956
 H66     -C41     -C42     : 119.506621  C43     -C42     -C41     : 117.379975
 C49     -C42     -C41     : 123.013706  C49     -C42     -C43     : 119.536346
 C44     -C43     -C42     : 122.445508  H67     -C43     -C42     : 118.609256
 H67     -C43     -C44     : 118.934746  C43     -C44     -C39     : 119.379567
 C45     -C44     -C39     : 120.961937  C45     -C44     -C43     : 119.597483
 C46     -C45     -C44     : 111.064343  C50     -C45     -C44     : 112.279306
 C50     -C45     -C46     : 111.410835  H68     -C45     -C44     : 106.835965
 H68     -C45     -C46     : 107.497007  H68     -C45     -C50     : 107.459521
 H69     -C46     -C45     : 110.831429  H70     -C46     -C45     : 110.848733
 H70     -C46     -H69     : 107.991951  H71     -C46     -C45     : 110.805546
 H71     -C46     -H69     : 108.015805  H71     -C46     -H70     : 108.233414
 C48     -C47     -C40     : 111.034434  C51     -C47     -C40     : 111.590457
 C51     -C47     -C48     : 111.366721  H72     -C47     -C40     : 107.558941
 H72     -C47     -C48     : 107.908875  H72     -C47     -C51     : 107.156471
 H73     -C48     -C47     : 111.673747  H74     -C48     -C47     : 110.617661
 H74     -C48     -H73     : 107.708252  H75     -C48     -C47     : 110.683679
 H75     -C48     -H73     : 107.147409  H75     -C48     -H74     : 108.876530
 C52     -C49     -C42     : 114.033172  C53     -C49     -C42     : 109.984355
 C53     -C49     -C52     : 110.374987  H76     -C49     -C42     : 107.140116
 H76     -C49     -C52     : 108.076599  H76     -C49     -C53     : 106.918056
 H77     -C50     -C45     : 111.717425  H78     -C50     -C45     : 110.489645
 H78     -C50     -H77     : 107.624976  H79     -C50     -C45     : 110.734341
 H79     -C50     -H77     : 107.741004  H79     -C50     -H78     : 108.398840
 H80     -C51     -C47     : 111.129403  H81     -C51     -C47     : 110.771586
 H81     -C51     -H80     : 107.921577  H82     -C51     -C47     : 110.749548
 H82     -C51     -H80     : 107.966871  H82     -C51     -H81     : 108.180133
 H83     -C52     -C49     : 111.158322  H84     -C52     -C49     : 110.373474
 H84     -C52     -H83     : 107.278055  H85     -C52     -C49     : 111.849859
 H85     -C52     -H83     : 107.512937  H85     -C52     -H84     : 108.497321
 H86     -C53     -C49     : 110.307623  H87     -C53     -C49     : 111.248439
 H87     -C53     -H86     : 107.769023  H88     -C53     -C49     : 110.951530
 H88     -C53     -H86     : 108.221959  H88     -C53     -H87     : 108.224523
 H90     -C89     -C28     : 108.627953  H91     -C89     -C28     : 112.774288
 H91     -C89     -H90     : 106.716770  H92     -C89     -C28     : 112.822105
 H92     -C89     -H90     : 106.959557  H92     -C89     -H91     : 108.602142
 H94     -C93     -C27     : 109.394930  H95     -C93     -C27     : 111.216952
 H95     -C93     -H94     : 107.496219  H96     -C93     -C27     : 112.186977
 H96     -C93     -H94     : 107.973242  H96     -C93     -H95     : 108.409995
 
  torsional angles:
 
 P1      -Pd2     -C8      -C7      : 112.789382
 P1      -Pd2     -C8      -C9      :-132.019058
 P1      -Pd2     -C8      -H13     : -15.064276
 P1      -Pd2     -C9      -C4      :-126.095645
 P1      -Pd2     -C9      -C8      : 118.695929
 P1      -Pd2     -C9      -H14     :  -0.753083
 P1      -C27     -C30     -H54     : -58.451529
 P1      -C27     -C30     -H55     :  64.794217
 P1      -C27     -C30     -H97     :-177.471621
 P1      -C27     -C31     -H56     : -46.538312
 P1      -C27     -C31     -H57     :  75.222224
 P1      -C27     -C31     -H98     :-166.102411
 P1      -C27     -C93     -H94     : 172.234331
 P1      -C27     -C93     -H95     : -69.173031
 P1      -C27     -C93     -H96     :  52.440891
 P1      -C28     -C32     -H58     : -67.974382
 P1      -C28     -C32     -H59     :  52.836691
 P1      -C28     -C32     -H99     : 172.411822
 P1      -C28     -C33     -H60     : -54.336053
 P1      -C28     -C33     -H61     :  67.239229
 P1      -C28     -C33     -H100    :-172.897226
 P1      -C28     -C89     -H90     :-179.358184
 P1      -C28     -C89     -H91     : -61.276729
 P1      -C28     -C89     -H92     :  62.229299
 P1      -C29     -C34     -C35     :-178.355414
 P1      -C29     -C34     -H62     :   1.789040
 P1      -C29     -C38     -C37     : 177.481578
 P1      -C29     -C38     -C39     :  -5.567620
 Pd2     -P1      -C27     -C30     :-168.351493
 Pd2     -P1      -C27     -C31     :  67.958785
 Pd2     -P1      -C27     -C93     : -47.999747
 Pd2     -P1      -C28     -C32     : -39.815537
 Pd2     -P1      -C28     -C33     :  75.012264
 Pd2     -P1      -C28     -C89     :-162.879194
 Pd2     -P1      -C29     -C34     :-176.354752
 Pd2     -P1      -C29     -C38     :   3.087840
 Pd2     -C8      -C7      -N3      :-104.353353
 Pd2     -C8      -C7      -C6      :  80.591695
 Pd2     -C8      -C9      -C4      :-104.185579
 Pd2     -C8      -C9      -H14     :  89.852369
 Pd2     -C9      -C4      -C5      : -81.622630
 Pd2     -C9      -C4      -F10     : 101.029469
 Pd2     -C9      -C8      -C7      : 103.110128
 Pd2     -C9      -C8      -H13     : -92.982383
 N3      -C7      -C6      -C5      :-175.231010
 N3      -C7      -C6      -H12     :   3.884627
 N3      -C7      -C8      -C9      : 176.456666
 N3      -C7      -C8      -H13     :  12.665861
 N3      -C19     -C18     -C17     : 179.369798
 N3      -C19     -C18     -H24     :   1.800248
 N3      -C19     -C20     -C21     :-178.845668
 N3      -C19     -C20     -H25     :   1.376523
 C4      -C5      -C6      -C7      :  -2.040619
 C4      -C5      -C6      -H12     : 178.841446
 C4      -C9      -Pd2     -C8      : 115.208426
 C4      -C9      -C8      -C7      :  -1.075451
 C4      -C9      -C8      -H13     : 162.832038
 C5      -C4      -C9      -C8      :  -0.841151
 C5      -C4      -C9      -H14     : 165.369812
 C5      -C6      -C7      -C8      :   0.151614
 C6      -C5      -C4      -C9      :   2.390397
 C6      -C5      -C4      -F10     : 179.723800
 C6      -C7      -N3      -H15     :  12.730385
 C6      -C7      -N3      -C19     :-169.236949
 C6      -C7      -C8      -C9      :   1.401713
 C6      -C7      -C8      -H13     :-162.389091
 C7      -N3      -C19     -C18     :  18.433789
 C7      -N3      -C19     -C20     :-163.466006
 C7      -C6      -C5      -H11     : 177.118397
 C7      -C8      -Pd2     -C9      :-115.191560
 C7      -C8      -C9      -H14     :-167.037504
 C8      -Pd2     -P1      -C27     : -39.949698
 C8      -Pd2     -P1      -C28     :  83.139914
 C8      -Pd2     -P1      -C29     :-160.027702
 C8      -Pd2     -C9      -H14     :-119.449012
 C8      -C7      -N3      -H15     :-162.408112
 C8      -C7      -N3      -C19     :  15.624554
 C8      -C7      -C6      -H12     : 179.267251
 C8      -C9      -C4      -F10     :-178.189052
 C9      -Pd2     -P1      -C27     :-118.214730
 C9      -Pd2     -P1      -C28     :   4.874882
 C9      -Pd2     -P1      -C29     : 121.707266
 C9      -Pd2     -C8      -H13     : 116.954782
 C9      -C4      -C5      -H11     :-176.776830
 F10     -C4      -C5      -H11     :   0.556573
 F10     -C4      -C9      -H14     : -11.978089
 H11     -C5      -C6      -H12     :  -1.999539
 H13     -C8      -C9      -H14     :  -3.130014
 H15     -N3      -C19     -C18     :-163.538531
 H15     -N3      -C19     -C20     :  14.561673
 C16     -C17     -C18     -C19     :  -0.768530
 C16     -C17     -C18     -H24     : 176.805079
 C16     -C21     -C20     -C19     :  -0.556460
 C16     -C21     -C20     -H25     : 179.220402
 C17     -C16     -C21     -C20     :   1.094181
 C17     -C16     -C21     -H26     :-179.485489
 C17     -C18     -C19     -C20     :   1.295577
 C18     -C17     -C16     -C21     :  -0.432695
 C18     -C17     -C16     -H22     : 179.822144
 C18     -C19     -C20     -C21     :  -0.644569
 C18     -C19     -C20     -H25     : 179.577622
 C19     -C18     -C17     -H23     : 179.713626
 C19     -C20     -C21     -H26     :-179.983867
 C20     -C19     -C18     -H24     :-176.273974
 C20     -C21     -C16     -H22     :-179.160881
 C21     -C16     -C17     -H23     : 179.079170
 H22     -C16     -C17     -H23     :  -0.665991
 H22     -C16     -C21     -H26     :   0.259450
 H23     -C17     -C18     -H24     :  -2.712765
 H25     -C20     -C21     -H26     :  -0.207005
 C27     -P1      -C28     -C32     :  87.356462
 C27     -P1      -C28     -C33     :-157.815736
 C27     -P1      -C28     -C89     : -35.707194
 C27     -P1      -C29     -C34     :  57.594940
 C27     -P1      -C29     -C38     :-122.962467
 C28     -P1      -C27     -C30     :  67.316136
 C28     -P1      -C27     -C31     : -56.373586
 C28     -P1      -C27     -C93     :-172.332119
 C28     -P1      -C29     -C34     : -56.174793
 C28     -P1      -C29     -C38     : 123.267800
 C29     -P1      -C27     -C30     : -44.074528
 C29     -P1      -C27     -C31     :-167.764250
 C29     -P1      -C27     -C93     :  76.277218
 C29     -P1      -C28     -C32     :-161.327647
 C29     -P1      -C28     -C33     : -46.499845
 C29     -P1      -C28     -C89     :  75.608697
 C29     -C34     -C35     -C36     :   0.183204
 C29     -C34     -C35     -H63     :-179.940511
 C29     -C38     -C37     -C36     :   1.750502
 C29     -C38     -C37     -H65     :-179.290653
 C29     -C38     -C39     -C40     : -99.400168
 C29     -C38     -C39     -C44     :  98.113792
 C30     -C27     -C31     -H56     :-175.613912
 C30     -C27     -C31     -H57     : -53.853377
 C30     -C27     -C31     -H98     :  64.821989
 C30     -C27     -C93     -H94     : -60.442560
 C30     -C27     -C93     -H95     :  58.150078
 C30     -C27     -C93     -H96     : 179.763999
 C31     -C27     -C30     -H54     :  64.210647
 C31     -C27     -C30     -H55     :-172.543607
 C31     -C27     -C30     -H97     : -54.809445
 C31     -C27     -C93     -H94     :  57.204827
 C31     -C27     -C93     -H95     : 175.797465
 C31     -C27     -C93     -H96     : -62.588614
 C32     -C28     -C33     -H60     :  60.770607
 C32     -C28     -C33     -H61     :-177.654111
 C32     -C28     -C33     -H100    : -57.790565
 C32     -C28     -C89     -H90     :  58.037930
 C32     -C28     -C89     -H91     : 176.119385
 C32     -C28     -C89     -H92     : -60.374587
 C33     -C28     -C32     -H58     : 177.667926
 C33     -C28     -C32     -H59     : -61.521001
 C33     -C28     -C32     -H99     :  58.054130
 C33     -C28     -C89     -H90     : -58.278146
 C33     -C28     -C89     -H91     :  59.803309
 C33     -C28     -C89     -H92     :-176.690662
 C34     -C29     -C38     -C37     :  -3.060938
 C34     -C29     -C38     -C39     : 173.889864
 C34     -C35     -C36     -C37     :  -1.594526
 C34     -C35     -C36     -H64     : 179.333921
 C35     -C34     -C29     -C38     :   2.184966
 C35     -C36     -C37     -C38     :   0.624984
 C35     -C36     -C37     -H65     :-178.316295
 C36     -C35     -C34     -H62     :-179.959320
 C36     -C37     -C38     -C39     :-175.699348
 C37     -C36     -C35     -H63     : 178.530375
 C37     -C38     -C39     -C40     :  77.698656
 C37     -C38     -C39     -C44     : -84.787384
 C38     -C29     -C34     -H62     :-177.670580
 C38     -C37     -C36     -H64     : 179.703288
 C38     -C39     -C40     -C41     :-160.105707
 C38     -C39     -C40     -C47     :  18.292695
 C38     -C39     -C44     -C43     : 159.883970
 C38     -C39     -C44     -C45     : -17.263815
 C39     -C38     -C37     -H65     :   3.259497
 C39     -C40     -C41     -C42     :   0.064040
 C39     -C40     -C41     -H66     : 179.043903
 C39     -C40     -C47     -C48     : 125.939520
 C39     -C40     -C47     -C51     :-109.171898
 C39     -C40     -C47     -H72     :   8.084077
 C39     -C44     -C43     -C42     :  -0.369710
 C39     -C44     -C43     -H67     :-179.174354
 C39     -C44     -C45     -C46     : 105.076146
 C39     -C44     -C45     -C50     :-129.434363
 C39     -C44     -C45     -H68     : -11.870566
 C40     -C39     -C44     -C43     :  -2.529137
 C40     -C39     -C44     -C45     :-179.676921
 C40     -C41     -C42     -C43     :  -2.889702
 C40     -C41     -C42     -C49     : 174.049564
 C40     -C47     -C48     -H73     :  68.975221
 C40     -C47     -C48     -H74     :-171.075821
 C40     -C47     -C48     -H75     : -50.310238
 C40     -C47     -C51     -H80     : -60.636440
 C40     -C47     -C51     -H81     : 179.402614
 C40     -C47     -C51     -H82     :  59.366890
 C41     -C40     -C39     -C44     :   2.682182
 C41     -C40     -C47     -C48     : -55.642885
 C41     -C40     -C47     -C51     :  69.245697
 C41     -C40     -C47     -H72     :-173.498328
 C41     -C42     -C43     -C44     :   3.050223
 C41     -C42     -C43     -H67     :-178.141410
 C41     -C42     -C49     -C52     :  21.258275
 C41     -C42     -C49     -C53     :-103.338650
 C41     -C42     -C49     -H76     : 140.799923
 C42     -C41     -C40     -C47     :-178.388385
 C42     -C43     -C44     -C45     : 176.817493
 C42     -C49     -C52     -H83     : -70.616112
 C42     -C49     -C52     -H84     : 170.471901
 C42     -C49     -C52     -H85     :  49.572144
 C42     -C49     -C53     -H86     :  63.102164
 C42     -C49     -C53     -H87     : -56.438437
 C42     -C49     -C53     -H88     :-176.982226
 C43     -C42     -C41     -H66     : 178.142309
 C43     -C42     -C49     -C52     :-161.865608
 C43     -C42     -C49     -C53     :  73.537467
 C43     -C42     -C49     -H76     : -42.323960
 C43     -C44     -C45     -C46     : -72.065492
 C43     -C44     -C45     -C50     :  53.423999
 C43     -C44     -C45     -H68     : 170.987796
 C44     -C39     -C40     -C47     :-178.919416
 C44     -C43     -C42     -C49     :-173.999968
 C44     -C45     -C46     -H69     :  61.839895
 C44     -C45     -C46     -H70     : -58.064108
 C44     -C45     -C46     -H71     :-178.254549
 C44     -C45     -C50     -H77     : -68.236445
 C44     -C45     -C50     -H78     : 171.977204
 C44     -C45     -C50     -H79     :  51.862106
 C45     -C44     -C43     -H67     :  -1.987151
 C46     -C45     -C50     -H77     :  57.063528
 C46     -C45     -C50     -H78     : -62.722823
 C46     -C45     -C50     -H79     : 177.162079
 C47     -C40     -C41     -H66     :   0.591478
 C48     -C47     -C51     -H80     :  64.066665
 C48     -C47     -C51     -H81     : -55.894281
 C48     -C47     -C51     -H82     :-175.930005
 C49     -C42     -C41     -H66     :  -4.918424
 C49     -C42     -C43     -H67     :   4.808400
 C50     -C45     -C46     -H69     : -64.133553
 C50     -C45     -C46     -H70     : 175.962445
 C50     -C45     -C46     -H71     :  55.772003
 C51     -C47     -C48     -H73     : -56.039315
 C51     -C47     -C48     -H74     :  63.909643
 C51     -C47     -C48     -H75     :-175.324774
 C52     -C49     -C53     -H86     : -63.577934
 C52     -C49     -C53     -H87     : 176.881465
 C52     -C49     -C53     -H88     :  56.337675
 C53     -C49     -C52     -H83     :  53.771862
 C53     -C49     -C52     -H84     : -65.140124
 C53     -C49     -C52     -H85     : 173.960118
 H54     -C30     -C27     -C93     :-178.582857
 H55     -C30     -C27     -C93     : -55.337111
 H56     -C31     -C27     -C93     :  68.133271
 H57     -C31     -C27     -C93     :-170.106194
 H58     -C32     -C28     -C89     :  60.522944
 H59     -C32     -C28     -C89     :-178.665984
 H60     -C33     -C28     -C89     : 177.933270
 H61     -C33     -C28     -C89     : -60.491448
 H62     -C34     -C35     -H63     :  -0.083035
 H63     -C35     -C36     -H64     :  -0.541178
 H64     -C36     -C37     -H65     :   0.762009
 H68     -C45     -C46     -H69     : 178.381368
 H68     -C45     -C46     -H70     :  58.477366
 H68     -C45     -C46     -H71     : -61.713076
 H68     -C45     -C50     -H77     : 174.571286
 H68     -C45     -C50     -H78     :  54.784935
 H68     -C45     -C50     -H79     : -65.330163
 H72     -C47     -C48     -H73     :-173.382044
 H72     -C47     -C48     -H74     : -53.433086
 H72     -C47     -C48     -H75     :  67.332498
 H72     -C47     -C51     -H80     :-178.135344
 H72     -C47     -C51     -H81     :  61.903711
 H72     -C47     -C51     -H82     : -58.132013
 H76     -C49     -C52     -H83     : 170.372396
 H76     -C49     -C52     -H84     :  51.460410
 H76     -C49     -C52     -H85     : -69.439348
 H76     -C49     -C53     -H86     : 179.103465
 H76     -C49     -C53     -H87     :  59.562864
 H76     -C49     -C53     -H88     : -60.980926
 C89     -C28     -C32     -H99     : -59.090853
 C89     -C28     -C33     -H100    :  59.372098
 C93     -C27     -C30     -H97     :  62.397052
 C93     -C27     -C31     -H98     : -51.430828
 
  nuclear repulsion energy.......    6914.659835285 hartrees
  
  Detected an organometallic with only one TM atom. 
  
  
 
  Will use High-Quality Initial guess for organometallics
       including d-d repulsion (iguess=30)
 
 Non-default options chosen:
   SCF calculation type: DFT(b3pw91-d3)              
   DFT=Becke_3_Parameter/HF+Slater+Becke88+PW91+PW-GGAIIC (B3PW91-D3)
   Geometry will be optimized in redundant internal coordinates
   Solvation energy will be computed using PBF
     -solute cavity energy will not be included
     -surface area terms will not be included
   Vibrational frequencies and related properties will be computed
      from analytic second derivatives
   IR intensities will be computed
   Thermochemical properties will be computed
   Scaling standard convergence criteria by a factor of   5.00
   Solvent: benzene                                                         
   Internal dielectric constant:    1.000
   Continuum dielectric constant:   2.283
   Solvent probe molecule radius:   2.600
  
 Non-default print settings:
     11=  2
  
 Temporary integer options set:
     21= -1  73=  2
  
  atom       vdw   vdw2    cov     mass  grid  daf  charge   basis
  P1        2.147  2.074  1.060   30.974    Y    Y      Y    6-31g*
  Pd2       1.450  1.450  1.280  105.903    Y    Y      Y    lacv3p*
  N3        1.831  1.600  0.750   14.003    Y    Y      Y    6-31g*
  C4        1.949  1.900  0.770   12.000    Y    Y      Y    6-31g*
  C5        1.949  1.900  0.770   12.000    Y    Y      Y    6-31g*
  C6        1.949  1.900  0.770   12.000    Y    Y      Y    6-31g*
  C7        1.949  1.900  0.770   12.000    Y    Y      Y    6-31g*
  C8        1.949  1.900  0.770   12.000    Y    Y      Y    6-31g*
  C9        1.949  1.900  0.770   12.000    Y    Y      Y    6-31g*
  F10       1.736  1.682  0.720   18.998    Y    Y      Y    6-31g*
  H11       1.597  1.150  0.320    1.008    Y    Y      Y    6-31g*
  H12       1.597  1.150  0.320    1.008    Y    Y      Y    6-31g*
  H13       1.597  1.150  0.320    1.008    Y    Y      Y    6-31g*
  H14       1.597  1.150  0.320    1.008    Y    Y      Y    6-31g*
  H15       1.597  1.150  0.320    1.008    Y    Y      Y    6-31g*
  C16       1.949  1.900  0.770   12.000    Y    Y      Y    6-31g*
  C17       1.949  1.900  0.770   12.000    Y    Y      Y    6-31g*
  C18       1.949  1.900  0.770   12.000    Y    Y      Y    6-31g*
  C19       1.949  1.900  0.770   12.000    Y    Y      Y    6-31g*
  C20       1.949  1.900  0.770   12.000    Y    Y      Y    6-31g*
  C21       1.949  1.900  0.770   12.000    Y    Y      Y    6-31g*
  H22       1.597  1.150  0.320    1.008    Y    Y      Y    6-31g*
  H23       1.597  1.150  0.320    1.008    Y    Y      Y    6-31g*
  H24       1.597  1.150  0.320    1.008    Y    Y      Y    6-31g*
  H25       1.597  1.150  0.320    1.008    Y    Y      Y    6-31g*
  H26       1.597  1.150  0.320    1.008    Y    Y      Y    6-31g*
  C27       1.949  1.900  0.770   12.000    Y    Y      Y    6-31g*
  C28       1.949  1.900  0.770   12.000    Y    Y      Y    6-31g*
  C29       1.949  1.900  0.770   12.000    Y    Y      Y    6-31g*
  C30       1.949  1.900  0.770   12.000    Y    Y      Y    6-31g*
  C31       1.949  1.900  0.770   12.000    Y    Y      Y    6-31g*
  C32       1.949  1.900  0.770   12.000    Y    Y      Y    6-31g*
  C33       1.949  1.900  0.770   12.000    Y    Y      Y    6-31g*
  C34       1.949  1.900  0.770   12.000    Y    Y      Y    6-31g*
  C35       1.949  1.900  0.770   12.000    Y    Y      Y    6-31g*
  C36       1.949  1.900  0.770   12.000    Y    Y      Y    6-31g*
  C37       1.949  1.900  0.770   12.000    Y    Y      Y    6-31g*
  C38       1.949  1.900  0.770   12.000    Y    Y      Y    6-31g*
  C39       1.949  1.900  0.770   12.000    Y    Y      Y    6-31g*
  C40       1.949  1.900  0.770   12.000    Y    Y      Y    6-31g*
  C41       1.949  1.900  0.770   12.000    Y    Y      Y    6-31g*
  C42       1.949  1.900  0.770   12.000    Y    Y      Y    6-31g*
  C43       1.949  1.900  0.770   12.000    Y    Y      Y    6-31g*
  C44       1.949  1.900  0.770   12.000    Y    Y      Y    6-31g*
  C45       1.949  1.900  0.770   12.000    Y    Y      Y    6-31g*
  C46       1.949  1.900  0.770   12.000    Y    Y      Y    6-31g*
  C47       1.949  1.900  0.770   12.000    Y    Y      Y    6-31g*
  C48       1.949  1.900  0.770   12.000    Y    Y      Y    6-31g*
  C49       1.949  1.900  0.770   12.000    Y    Y      Y    6-31g*
  C50       1.949  1.900  0.770   12.000    Y    Y      Y    6-31g*
  C51       1.949  1.900  0.770   12.000    Y    Y      Y    6-31g*
  C52       1.949  1.900  0.770   12.000    Y    Y      Y    6-31g*
  C53       1.949  1.900  0.770   12.000    Y    Y      Y    6-31g*
  H54       1.597  1.150  0.320    1.008    Y    Y      Y    6-31g*
  H55       1.597  1.150  0.320    1.008    Y    Y      Y    6-31g*
  H56       1.597  1.150  0.320    1.008    Y    Y      Y    6-31g*
  H57       1.597  1.150  0.320    1.008    Y    Y      Y    6-31g*
  H58       1.597  1.150  0.320    1.008    Y    Y      Y    6-31g*
  H59       1.597  1.150  0.320    1.008    Y    Y      Y    6-31g*
  H60       1.597  1.150  0.320    1.008    Y    Y      Y    6-31g*
  H61       1.597  1.150  0.320    1.008    Y    Y      Y    6-31g*
  H62       1.597  1.150  0.320    1.008    Y    Y      Y    6-31g*
  H63       1.597  1.150  0.320    1.008    Y    Y      Y    6-31g*
  H64       1.597  1.150  0.320    1.008    Y    Y      Y    6-31g*
  H65       1.597  1.150  0.320    1.008    Y    Y      Y    6-31g*
  H66       1.597  1.150  0.320    1.008    Y    Y      Y    6-31g*
  H67       1.597  1.150  0.320    1.008    Y    Y      Y    6-31g*
  H68       1.597  1.150  0.320    1.008    Y    Y      Y    6-31g*
  H69       1.597  1.150  0.320    1.008    Y    Y      Y    6-31g*
  H70       1.597  1.150  0.320    1.008    Y    Y      Y    6-31g*
  H71       1.597  1.150  0.320    1.008    Y    Y      Y    6-31g*
  H72       1.597  1.150  0.320    1.008    Y    Y      Y    6-31g*
  H73       1.597  1.150  0.320    1.008    Y    Y      Y    6-31g*
  H74       1.597  1.150  0.320    1.008    Y    Y      Y    6-31g*
  H75       1.597  1.150  0.320    1.008    Y    Y      Y    6-31g*
  H76       1.597  1.150  0.320    1.008    Y    Y      Y    6-31g*
  H77       1.597  1.150  0.320    1.008    Y    Y      Y    6-31g*
  H78       1.597  1.150  0.320    1.008    Y    Y      Y    6-31g*
  H79       1.597  1.150  0.320    1.008    Y    Y      Y    6-31g*
  H80       1.597  1.150  0.320    1.008    Y    Y      Y    6-31g*
  H81       1.597  1.150  0.320    1.008    Y    Y      Y    6-31g*
  H82       1.597  1.150  0.320    1.008    Y    Y      Y    6-31g*
  H83       1.597  1.150  0.320    1.008    Y    Y      Y    6-31g*
  H84       1.597  1.150  0.320    1.008    Y    Y      Y    6-31g*
  H85       1.597  1.150  0.320    1.008    Y    Y      Y    6-31g*
  H86       1.597  1.150  0.320    1.008    Y    Y      Y    6-31g*
  H87       1.597  1.150  0.320    1.008    Y    Y      Y    6-31g*
  H88       1.597  1.150  0.320    1.008    Y    Y      Y    6-31g*
  C89       1.949  1.900  0.770   12.000    Y    Y      Y    6-31g*
  H90       1.597  1.150  0.320    1.008    Y    Y      Y    6-31g*
  H91       1.597  1.150  0.320    1.008    Y    Y      Y    6-31g*
  H92       1.597  1.150  0.320    1.008    Y    Y      Y    6-31g*
  C93       1.949  1.900  0.770   12.000    Y    Y      Y    6-31g*
  H94       1.597  1.150  0.320    1.008    Y    Y      Y    6-31g*
  H95       1.597  1.150  0.320    1.008    Y    Y      Y    6-31g*
  H96       1.597  1.150  0.320    1.008    Y    Y      Y    6-31g*
  H97       1.597  1.150  0.320    1.008    Y    Y      Y    6-31g*
  H98       1.597  1.150  0.320    1.008    Y    Y      Y    6-31g*
  H99       1.597  1.150  0.320    1.008    Y    Y      Y    6-31g*
  H100      1.597  1.150  0.320    1.008    Y    Y      Y    6-31g*
 
  atom      formal  2spin      esp    mulk    frag
  P1           0       0        Y    0.000       0
  Pd2          0       0        Y    0.000       0
  N3           0       0        Y    0.000       0
  
  end of program pre
   
 Time(pre)  user:        2.0  user+sys:        2.0  wallclock:        2.1
  
  start of program onee
  
  smallest eigenvalue of S:    2.975E-04
  number of canonical orbitals.....          757
  end of program onee
   
 Time(onee)  user:        2.4  user+sys:        2.4  wallclock:        2.5
  
  start of program hfig
  
  initial wavefunction generated automatically from atomic wavefunctions
  Only one possible d-orb occupation 
  Skip d-d repulsion considerations 
 
  Irreducible     Total no   No of occupied orbitals 
  representation  orbitals   Shell_1  Shell_2    ...
  No Symm          757        175
  ------------------------
  Orbital occupation/shell    1.000
 
  end of program hfig
   
 Time(hfig)  user:        0.8  user+sys:        0.8  wallclock:        0.9
  
  start of program probe
  
  end of program probe
   
 Time(probe)  user:        0.5  user+sys:        0.5  wallclock:        0.5
  
  start of program grid
  
   grid     grid set  grid #  grid sym
  ------    --------  ------  --------
  coarse        0        0        1
  medium        2        1        1
  fine          0        0        1
  ultrafine     4        2        1
  charge       -1        3        1
  gradient      4        2        1
  density       0        0        1
  DFT-fine    -11        4        1
  DFT-med.    -10        5        1
  DFT-grad    -12        6        1
  DFT-der2     -8        7        1
  DFT-cphf     -9        8        1
  LMP2-enrg     4        2        1
  LMP2-grad     2        1        1
  DFT-cphf2   -15        9        1
  PBF-dens      0        0        1
  plotting      0        0        1
  Rel-grad    -17        0        1
  
  number of gridpoints: 
     atom        P1      Pd2       N3       C4       C5       C6       C7
  grid # 1      611      366      106       83       93       95       95
  grid # 2      427      343      337      333      322      327      351
  grid # 3        6      256       25       28       29       31       29
  grid # 4     8714     8714     8714     8714     8714     8714     8714
  grid # 5     1192     1192     1192     1192     1192     1192     1192
  grid # 6     9132     9132     5922     5922     5922     5922     5922
  grid # 7    23034    32968    13958    13950    13950    13950    13950
  grid # 8      722     1150      756      748      748      748      748
  grid # 9      366     2198      406      394      394      394      394
   
  number of gridpoints: 
     atom        C8       C9      F10      H11      H12      H13      H14
  grid # 1       93       91      571      105      113      108      110
  grid # 2      326      323      546      435      450      445      454
  grid # 3       19       22      160      162      273      234      258
  grid # 4     8714     8714     8714     8714     8714     8714     8714
  grid # 5     1192     1192     1192     1192     1192     1192     1192
  grid # 6     5922     5922     5922     5922     5922     5922     5922
  grid # 7    13950    13950    23190    15206    15206    15206    15206
  grid # 8      748      748      770      786      786      786      786
  grid # 9      394      394      420      420      420      420      420
   
  number of gridpoints: 
     atom       H15      C16      C17      C18      C19      C20      C21
  grid # 1      109       97       96       95       93       97       97
  grid # 2      431      325      326      325      351      329      325
  grid # 3      231       50       44       30       34       46       52
  grid # 4     8714     8714     8714     8714     8714     8714     8714
  grid # 5     1192     1192     1192     1192     1192     1192     1192
  grid # 6     5922     5922     5922     5922     5922     5922     5922
  grid # 7    15206    13950    13950    13950    13950    13950    13950
  grid # 8      786      748      748      748      748      748      748
  grid # 9      420      394      394      394      394      394      394
   
  number of gridpoints: 
     atom       H22      H23      H24      H25      H26      C27      C28
  grid # 1      118      112       99      115      118       88       88
  grid # 2      467      442      415      457      467      362      365
  grid # 3      425      216       29      351      421        6        6
  grid # 4     8714     8714     8714     8714     8714     8714     8714
  grid # 5     1192     1192     1192     1192     1192     1192     1192
  grid # 6     5922     5922     5922     5922     5922     5922     5922
  grid # 7    15206    15206    15206    15206    15206    13950    13950
  grid # 8      786      786      786      786      786      748      748
  grid # 9      420      420      420      420      420      394      394
   
  number of gridpoints: 
     atom       C29      C30      C31      C32      C33      C34      C35
  grid # 1       95       81       80       81       80       93       95
  grid # 2      381      236      239      237      236      324      324
  grid # 3        8        6        6        6        6       13       34
  grid # 4     8714     8714     8714     8714     8714     8714     8714
  grid # 5     1192     1192     1192     1192     1192     1192     1192
  grid # 6     5922     5922     5922     5922     5922     5922     5922
  grid # 7    13950    13950    13950    13950    13950    13950    13950
  grid # 8      748      748      748      748      748      748      748
  grid # 9      394      394      394      394      394      394      394
   
  number of gridpoints: 
     atom       C36      C37      C38      C39      C40      C41      C42
  grid # 1       95       94       98      100       98       95      100
  grid # 2      323      323      352      356      360      324      358
  grid # 3       31       14        7        7        9       17       11
  grid # 4     8714     8714     8714     8714     8714     8714     8714
  grid # 5     1192     1192     1192     1192     1192     1192     1192
  grid # 6     5922     5922     5922     5922     5922     5922     5922
  grid # 7    13950    13950    13950    13950    13950    13950    13950
  grid # 8      748      748      748      748      748      748      748
  grid # 9      394      394      394      394      394      394      394
   
  number of gridpoints: 
     atom       C43      C44      C45      C46      C47      C48      C49
  grid # 1       95       98       90       79       90       80       91
  grid # 2      327      358      303      242      304      240      304
  grid # 3       15        9        6        6        6        6        6
  grid # 4     8714     8714     8714     8714     8714     8714     8714
  grid # 5     1192     1192     1192     1192     1192     1192     1192
  grid # 6     5922     5922     5922     5922     5922     5922     5922
  grid # 7    13950    13950    13950    13950    13950    13950    13950
  grid # 8      748      748      748      748      748      748      748
  grid # 9      394      394      394      394      394      394      394
   
  number of gridpoints: 
     atom       C50      C51      C52      C53      H54      H55      H56
  grid # 1       79       81       81       80      102      105       99
  grid # 2      241      240      239      243      422      433      422
  grid # 3        6        6        6        6      147      193       74
  grid # 4     8714     8714     8714     8714     8714     8714     8714
  grid # 5     1192     1192     1192     1192     1192     1192     1192
  grid # 6     5922     5922     5922     5922     5922     5922     5922
  grid # 7    13950    13950    13950    13950    15206    15206    15206
  grid # 8      748      748      748      748      786      786      786
  grid # 9      394      394      394      394      420      420      420
   
  number of gridpoints: 
     atom       H57      H58      H59      H60      H61      H62      H63
  grid # 1      100      105      104       98      103      103      118
  grid # 2      426      435      431      414      433      419      466
  grid # 3      155      170      126       43      153       85      418
  grid # 4     8714     8714     8714     8714     8714     8714     8714
  grid # 5     1192     1192     1192     1192     1192     1192     1192
  grid # 6     5922     5922     5922     5922     5922     5922     5922
  grid # 7    15206    15206    15206    15206    15206    15206    15206
  grid # 8      786      786      786      786      786      786      786
  grid # 9      420      420      420      420      420      420      420
   
  number of gridpoints: 
     atom       H64      H65      H66      H67      H68      H69      H70
  grid # 1      118      112      103      106      102      107      107
  grid # 2      466      441      420      429      411      447      449
  grid # 3      405      187       74      113       42      247      229
  grid # 4     8714     8714     8714     8714     8714     8714     8714
  grid # 5     1192     1192     1192     1192     1192     1192     1192
  grid # 6     5922     5922     5922     5922     5922     5922     5922
  grid # 7    15206    15206    15206    15206    15206    15206    15206
  grid # 8      786      786      786      786      786      786      786
  grid # 9      420      420      420      420      420      420      420
   
  number of gridpoints: 
     atom       H71      H72      H73      H74      H75      H76      H77
  grid # 1      110      103      104      108      102      104      105
  grid # 2      454      414      440      444      428      432      442
  grid # 3      313       51      207      267       93      147      205
  grid # 4     8714     8714     8714     8714     8714     8714     8714
  grid # 5     1192     1192     1192     1192     1192     1192     1192
  grid # 6     5922     5922     5922     5922     5922     5922     5922
  grid # 7    15206    15206    15206    15206    15206    15206    15206
  grid # 8      786      786      786      786      786      786      786
  grid # 9      420      420      420      420      420      420      420
   
  number of gridpoints: 
     atom       H78      H79      H80      H81      H82      H83      H84
  grid # 1      108      101      107      110      107      108      108
  grid # 2      447      426      445      454      447      439      452
  grid # 3      240       54      251      317      221      238      322
  grid # 4     8714     8714     8714     8714     8714     8714     8714
  grid # 5     1192     1192     1192     1192     1192     1192     1192
  grid # 6     5922     5922     5922     5922     5922     5922     5922
  grid # 7    15206    15206    15206    15206    15206    15206    15206
  grid # 8      786      786      786      786      786      786      786
  grid # 9      420      420      420      420      420      420      420
   
  number of gridpoints: 
     atom       H85      H86      H87      H88      C89      H90      H91
  grid # 1      102      109      107      110       81      109      100
  grid # 2      429      454      452      455      234      446      426
  grid # 3      154      297      267      320        6      270      162
  grid # 4     8714     8714     8714     8714     8714     8714     8714
  grid # 5     1192     1192     1192     1192     1192     1192     1192
  grid # 6     5922     5922     5922     5922     5922     5922     5922
  grid # 7    15206    15206    15206    15206    13950    15206    15206
  grid # 8      786      786      786      786      748      786      786
  grid # 9      420      420      420      420      394      420      420
   
  number of gridpoints: 
     atom       H92      C93      H94      H95      H96      H97      H98
  grid # 1      101       78      108      102      100      109      105
  grid # 2      423      242      443      425      415      446      431
  grid # 3      153        6      228      115       37      267      168
  grid # 4     8714     8714     8714     8714     8714     8714     8714
  grid # 5     1192     1192     1192     1192     1192     1192     1192
  grid # 6     5922     5922     5922     5922     5922     5922     5922
  grid # 7    15206    13950    15206    15206    15206    15206    15206
  grid # 8      786      748      786      786      786      786      786
  grid # 9      420      394      420      420      420      420      420
   
  number of gridpoints: 
     atom       H99     H100    total
  grid # 1      107      108    11204
  grid # 2      442      445    38356
  grid # 3      273      247    12483
  grid # 4     8714     8714   871400
  grid # 5     1192     1192   119200
  grid # 6     5922     5922   598620
  grid # 7    15206    15206  1501430
  grid # 8      786      786    77296
  grid # 9      420      420    42644
   
  end of program grid
   
 Time(grid)  user:      388.8  user+sys:      388.8  wallclock:      389.5
  
  start of program rwr
  
  end of program rwr
   
 Time(rwr)  user:       11.9  user+sys:       11.9  wallclock:       13.3
  
  start of program scf
  
 number of electrons..........        350
 number of alpha electrons....        175
 number of beta electrons.....        175
 number of orbitals, total....        757
 number of doubly-occ'd orbs..        175
 number of open shell orbs....          0
 number of occupied orbitals..        175
 number of virtual orbitals...        582
 number of hamiltonians.......          1
 number of shells.............          1
 SCF type: DFT=Becke_3_Parameter/HF+Slater+Becke88+PW91+PW-GGAIIC (B3PW91-D3)
 Energy computed with NOPS off.
 Convergence Criterion:
    Energy (econv):       1.00E-05
    RMS density (dconv):  5.00E-06
  
       i  u  d  i  g                   
       t  p  i  c  r                                 RMS    maximum
       e  d  i  u  i                       energy  density   DIIS  
       r  t  s  t  d       total energy    change  change    error 
  
etot    1  N  N  5  M   -2212.20831474240           1.7E-03  1.5E-01
etot    2  Y  Y  6  M   -2216.03813520850  3.8E+00  2.7E-03  1.2E-01
etot    3  Y  Y  6  M   -2217.05768179811  1.0E+00  1.1E-03  4.8E-02
etot    4  N  Y  2  U   -2217.44325982718  3.9E-01  8.0E-04  5.4E-02
etot    5  Y  Y  6  M   -2217.53339695236  9.0E-02  4.8E-04  3.1E-02
etot    6  N  Y  2  U   -2217.53895527048  5.6E-03  5.0E-04  1.6E-02
etot    7  Y  Y  6  M   -2217.54769865616  8.7E-03  9.7E-05  4.7E-03
etot    8  N  Y  2  U   -2217.55299295736  5.3E-03  2.5E-05  1.5E-03
etot    9  N  Y  2  U   -2217.55331368604  3.2E-04  7.6E-06  2.5E-04
etot   10  N  Y  2  U   -2217.55332536983  1.2E-05  3.7E-06  1.2E-04
etot   11  N  N  2  U   -2217.55332916506  3.8E-06  0.0E+00  0.0E+00
 
  Computing the dispersion energy correction and its gradients...
  
  
 Energy components, in hartrees:
   (A)  Nuclear repulsion............    6914.65983528533
   (E)  Total one-electron terms.....  -16849.70150802141
   (F)    Electron-nuclear...........  -18974.77763976304
   (H)    Kinetic....................    2125.07613174163
   (I)  Total two-electron terms.....    7717.48834357101
   (J)    Coulomb....................    8013.70330170063
   (K)    Exchange+Correlation.......    -296.21495812962
   (L)  Electronic energy............   -9132.21316445040  (E+I)
   (N0) D3 correction................      -0.19397783585
   (N)  Total energy.................   -2217.74730700092  (A+L+N0)
   (O)  Gas phase energy.............   -2217.74730700092
  
 SCFE: SCF energy: DFT(b3pw91-d3)     -2217.74730700092 hartrees   iterations:  11
  
 
 HOMO energy:    -0.16294
 LUMO energy:    -0.03159
 
  Orbital energies (hartrees): 
   -77.05557   -24.68014   -14.35020   -10.24260   -10.21977   -10.21506
   -10.19125   -10.19066   -10.19040   -10.18465   -10.18263   -10.18170
   -10.17766   -10.17714   -10.17582   -10.17261   -10.17238   -10.17201
   -10.17056   -10.16907   -10.16871   -10.16675   -10.16637   -10.16518
   -10.16323   -10.16322   -10.15953   -10.15945   -10.15940   -10.15922
   -10.15833   -10.15563   -10.15478   -10.15066   -10.15059   -10.14962
   -10.14836   -10.14828   -10.14810   -10.14606   -10.14417   -10.14343
   -10.13929   -10.13841    -6.55519    -4.71335    -4.71289    -4.70962
    -3.25784    -1.99390    -1.97722    -1.97219    -1.21044    -0.96064
    -0.87271    -0.86031    -0.85215    -0.83852    -0.82319    -0.81040
    -0.80687    -0.80452    -0.76997    -0.76301    -0.76220    -0.75679
    -0.75413    -0.74348    -0.71260    -0.71166    -0.70900    -0.69335
    -0.69029    -0.68202    -0.68160    -0.68008    -0.67347    -0.67296
    -0.64608    -0.63540    -0.62698    -0.62338    -0.61783    -0.60354
    -0.59953    -0.58867    -0.58549    -0.57916    -0.54748    -0.54586
    -0.53848    -0.53274    -0.52762    -0.52665    -0.52407    -0.50488
    -0.48796    -0.48173    -0.47704    -0.47337    -0.46332    -0.46169
    -0.45889    -0.45498    -0.45417    -0.44983    -0.44597    -0.44116
    -0.43805    -0.43513    -0.43431    -0.43172    -0.42960    -0.42836
    -0.42795    -0.42631    -0.42536    -0.41736    -0.41638    -0.41153
    -0.40576    -0.40343    -0.40072    -0.39884    -0.39778    -0.39433
    -0.39235    -0.38681    -0.38598    -0.38278    -0.37934    -0.37769
    -0.37617    -0.37584    -0.37100    -0.36842    -0.36521    -0.36436
    -0.36151    -0.35815    -0.35496    -0.35100    -0.35023    -0.34324
    -0.34167    -0.34145    -0.33881    -0.33586    -0.33267    -0.33090
    -0.32920    -0.32770    -0.32624    -0.32262    -0.32066    -0.31293
    -0.31209    -0.30579    -0.29782    -0.29523    -0.29400    -0.29078
    -0.26433    -0.25931    -0.25311    -0.24948    -0.24860    -0.23069
    -0.22346    -0.21721    -0.19860    -0.19026    -0.19007    -0.17388
    -0.16294    -0.03159    -0.01555    -0.00996    -0.00857     0.00132
     0.00533     0.01481     0.03218     0.03886     0.04921
 
FATAL MAE_GET_COORDS(): TOO MANY ATOMS IN CT BLOCK
  end of program scf
   
 Time(scf)  user:      399.2  user+sys:      399.2  wallclock:      404.1
  
  start of program der1a
  
  end of program der1a
   
 Time(der1a)  user:        7.9  user+sys:        7.9  wallclock:        8.0
  
  start of program rwr
  
  end of program rwr
   
 Time(rwr)  user:       14.7  user+sys:       14.7  wallclock:       16.5
  
  start of program der1b
  
   
  forces (hartrees/bohr) : total     
   
 atom  label           x              y              z
 ---- --------   -------------  -------------  -------------
    1 P1         -1.157960E-04  -2.290977E-04   4.374028E-04
    2 Pd2         1.273622E-05   1.913339E-04   2.478878E-04
    3 N3         -6.917250E-04   1.054683E-03   7.244301E-04
    4 C4         -1.672510E-03  -6.122800E-05   1.274134E-04
    5 C5          1.049338E-03  -1.580336E-03   1.327887E-04
    6 C6         -3.759099E-04  -8.656926E-04  -8.856735E-04
    7 C7         -9.624445E-04   1.501624E-04   7.726856E-05
    8 C8         -7.325709E-04  -3.625538E-04   1.811699E-03
    9 C9          4.788066E-04   5.107515E-04  -1.125163E-04
   10 F10         2.446070E-03   2.033260E-04   8.632687E-06
   11 H11         2.671495E-04  -5.443319E-04  -5.716569E-04
   12 H12        -2.818007E-04  -3.494632E-04  -3.840538E-04
   13 H13        -8.954504E-05   9.623419E-04   7.236443E-05
   14 H14         3.689731E-04   8.343806E-04   2.957015E-05
   15 H15        -6.796921E-04  -1.809621E-03  -2.225868E-03
   16 C16        -7.521820E-04   1.226273E-03   1.446418E-03
   17 C17         1.486852E-03  -3.658886E-04   3.250037E-04
   18 C18        -5.996573E-04   1.403043E-03   1.633403E-03
   19 C19         1.806816E-03  -1.140436E-03  -8.985612E-04
   20 C20        -1.052096E-03  -1.697845E-04  -8.651222E-04
   21 C21         2.782333E-04  -1.287938E-03  -1.930969E-03
   22 H22         8.310883E-05   1.247379E-04   1.949338E-04
   23 H23         1.787231E-04   8.690136E-04   1.230664E-03
   24 H24        -1.326910E-04   1.814389E-04   5.297474E-04
   25 H25        -2.622072E-04  -8.821624E-04  -1.317198E-03
   26 H26        -6.883219E-04  -2.441457E-04  -8.586192E-04
   27 C27        -2.139516E-04   2.473578E-04  -4.119200E-04
   28 C28         4.582229E-05  -1.056373E-04  -5.699000E-05
   29 C29        -1.564820E-04  -1.104646E-04  -2.470902E-04
   30 C30         8.585336E-05   8.540060E-05   2.219155E-04
   31 C31        -2.138286E-04   4.663940E-04  -1.233584E-04
   32 C32         3.696036E-05   1.643023E-04  -1.387922E-05
   33 C33         9.942388E-05   1.227966E-04  -1.497443E-04
   34 C34        -2.325903E-04   4.897729E-04  -4.811263E-04
   35 C35        -7.654878E-05   1.720264E-04   4.898483E-04
   36 C36         4.815944E-04  -1.588773E-03   8.816518E-04
   37 C37         7.528668E-05   3.207139E-05  -5.608380E-04
   38 C38        -2.106839E-04   8.885703E-05  -1.277861E-04
   39 C39        -3.452137E-04   5.317599E-04   4.899771E-04
   40 C40        -6.620591E-04  -6.311379E-05   2.213732E-04
   41 C41        -1.675757E-06   2.686460E-04   1.003700E-04
   42 C42         4.982535E-04   3.664998E-04  -1.170810E-03
   43 C43        -3.676627E-04  -2.318601E-04  -2.014849E-04
   44 C44         1.977841E-04   1.085328E-05   4.428886E-04
   45 C45         1.400276E-05   1.848394E-04   2.338679E-04
   46 C46        -1.404396E-04  -3.195501E-05  -5.973282E-05
   47 C47        -3.920619E-04   1.660683E-04   2.101119E-05
   48 C48         3.255396E-04   2.042953E-05  -1.203113E-04
   49 C49        -2.139507E-04   2.164271E-04  -2.041054E-04
   50 C50        -7.204818E-05   1.606734E-05   1.795716E-05
   51 C51         1.182616E-04  -2.603155E-05  -1.718740E-04
   52 C52         3.786451E-05  -3.294769E-04  -1.433044E-04
   53 C53         8.018055E-05  -1.507438E-04  -1.670126E-04
   54 H54         1.802723E-04   1.450629E-04   2.309844E-04
   55 H55         2.114338E-04  -2.809749E-04   1.600489E-04
   56 H56        -8.955812E-05   2.152999E-05   2.625626E-04
   57 H57        -2.026654E-04  -1.256503E-04  -1.083279E-04
   58 H58         8.851612E-06   2.179376E-05   5.918231E-05
   59 H59        -4.150288E-05  -2.716528E-04  -7.121343E-05
   60 H60        -1.398129E-04  -3.448474E-05   9.458918E-05
   61 H61        -5.037678E-05  -1.076780E-04  -5.503395E-05
   62 H62        -2.089190E-04  -7.445929E-05   2.685623E-04
   63 H63        -5.883833E-05   5.002812E-05   5.368827E-04
   64 H64         1.631516E-04  -4.709312E-04   3.084889E-04
   65 H65         7.426553E-05  -1.737228E-04   3.247014E-04
   66 H66         1.183560E-04  -9.150096E-05  -8.052263E-05
   67 H67        -7.480207E-05  -9.422822E-05  -1.484004E-04
   68 H68         9.014565E-05  -2.264734E-04  -3.907812E-04
   69 H69         1.024539E-05  -8.924405E-06  -1.394424E-04
   70 H70         1.197348E-04   1.634925E-04  -2.184160E-07
   71 H71        -1.281469E-04   9.628425E-05  -2.155848E-06
   72 H72         1.421803E-04  -7.702006E-05  -2.900625E-04
   73 H73        -3.321957E-05  -7.537687E-05   3.125498E-05
   74 H74         1.277851E-04   1.249918E-04   9.795473E-05
   75 H75        -1.904694E-04  -1.407315E-04   4.187513E-05
   76 H76        -2.183055E-04  -3.547186E-05  -2.361148E-04
   77 H77         8.044998E-05   2.135241E-05  -1.892994E-05
   78 H78        -5.210286E-05   4.905311E-05   1.976401E-04
   79 H79        -4.344611E-05  -1.797893E-04   8.019215E-05
   80 H80        -1.982535E-05  -1.289635E-05  -1.785308E-05
   81 H81         2.032245E-04   1.768925E-04   1.115229E-04
   82 H82        -2.103066E-04   4.858361E-05  -1.237908E-04
   83 H83         4.535230E-04  -1.245232E-04   2.994329E-04
   84 H84        -6.397210E-05  -7.465514E-05  -2.954583E-04
   85 H85        -1.892405E-04   4.162262E-04  -4.257018E-05
   86 H86         3.347637E-04  -1.352209E-04   3.510439E-04
   87 H87        -4.161817E-04  -1.089185E-04   2.838227E-05
   88 H88        -4.905742E-05  -1.301019E-04  -1.984324E-04
   89 C89        -6.301578E-05   1.071293E-04   1.740005E-04
   90 H90         2.818115E-05   1.351243E-05  -6.063973E-05
   91 H91        -4.130561E-05   1.704224E-04  -9.801120E-05
   92 H92         4.532120E-05  -5.768590E-05   3.061871E-05
   93 C93        -1.767070E-04   1.198252E-04   2.506967E-06
   94 H94        -1.342564E-04   1.182392E-04   1.204535E-04
   95 H95         8.067592E-05  -4.550470E-04   2.122439E-04
   96 H96         1.711727E-04  -7.747624E-05  -4.484900E-04
   97 H97        -1.942091E-04   7.780604E-06   1.711254E-05
   98 H98         4.374206E-04   7.733434E-06   3.570961E-05
   99 H99         1.264345E-04   2.063818E-04   1.046408E-04
  100 H100        4.663793E-06   8.542661E-05  -1.549395E-05
 -------------   -------------  -------------  -------------
     total       -1.712701E-03  -2.642533E-03  -9.704712E-04
   
  end of program der1b
   
 Time(der1b)  user:      142.0  user+sys:      142.0  wallclock:      142.6
  
  start of program geopt
  
 ----------------------------------------------------------------------------
  Geometry optimization step   1
  Total energy:     -2217.74730700092 hartrees
 ----------------------------------------------------------------------------
  
  gradient maximum:        1.0063E-02 .  (  2.2500E-03 )
  gradient rms:            1.2420E-03 *  (  1.5000E-03 )
  displacement maximum:    7.6078E-02 .  (  9.0000E-03 )
  displacement rms:        1.0302E-02 .  (  6.0000E-03 )
  
  predicted energy change:  -1.3028E-03
  step size:     0.18856
  trust radius:  0.30000
  
  molecular structure not yet converged...
  
  center of mass moved by:
     x:     1.4713E-02     y:    -3.3071E-02     z:     3.3980E-02
  
  new geometry: 
                                   angstroms
  atom               x                 y                 z
  P1            0.2888707008     -0.1232173568      0.3618883257 
  Pd2          -0.1591330854      0.0775986084      2.6002722713 
  N3            2.3711268264      0.2722374340      5.6432900213 
  C4           -1.7808682714      0.4986006866      5.1629212439 
  C5           -1.1068258853      1.4330320093      5.9185869525 
  C6            0.2798543483      1.3483259333      6.0296522435 
  C7            0.9996834867      0.3132109175      5.4281634927 
  C8            0.2924185781     -0.6825493279      4.7028169867 
  C9           -1.1158070422     -0.5740970509      4.5531699739 
  F10          -3.1224025111      0.5845412751      5.0462727696 
  H11          -1.6577464926      2.2161806825      6.4223160372 
  H12           0.8114211041      2.1037076188      6.6054079494 
  H13           0.7755359356     -1.6293483777      4.4874964555 
  H14          -1.6996409617     -1.4110887450      4.1782460591 
  H15           2.6868682044      0.8538378750      6.4057104192 
  C16           5.5385435178     -1.8049932992      3.8229167194 
  C17           4.3162168985     -1.6940668568      3.1655894862 
  C18           3.2428301622     -1.0189115556      3.7394478072 
  C19           3.3796599805     -0.4436708688      5.0104322238 
  C20           4.6173386855     -0.5501323534      5.6698504098 
  C21           5.6813109147     -1.2166366129      5.0788681495 
  H22           6.3678996511     -2.3365970241      3.3643349504 
  H23           4.1898208253     -2.1324166779      2.1796236491 
  H24           2.3152672703     -0.9009700437      3.1879651317 
  H25           4.7367650570     -0.1046025483      6.6567624549 
  H26           6.6280624146     -1.2830041537      5.6101918898 
  C27           2.1491884596     -0.3446234938     -0.0683219391 
  C28          -0.6836252244     -1.6085216235     -0.3903517542 
  C29          -0.2462046375      1.3427913855     -0.6383230436 
  C30           2.5781333820     -0.2351343870     -1.5381623751 
  C31           2.5792280887     -1.7115076332      0.4825207299 
  C32          -0.6493473332     -2.7564414343      0.6367142380 
  C33          -2.1421177891     -1.1551327237     -0.5212309527 
  C34          -0.1159866820      1.3255366180     -2.0383619335 
  C35          -0.4582916142      2.4080435852     -2.8374784056 
  C36          -0.9490296445      3.5638334058     -2.2403328283 
  C37          -1.1184544040      3.5919040500     -0.8629796379 
  C38          -0.8002483411      2.4993960695     -0.0363087388 
  C39          -1.1847778511      2.7568994266      1.3997777297 
  C40          -2.5460203417      2.6396854070      1.7519247320 
  C41          -3.0198395691      3.2760329682      2.9009469760 
  C42          -2.1917489643      4.0351340818      3.7197163513 
  C43          -0.8354967606      4.0906719680      3.3913691339 
  C44          -0.3164445298      3.4754773463      2.2557061224 
  C45           1.1512143937      3.6470118516      1.9172992699 
  C46           1.4347861526      5.0641192700      1.4026941063 
  C47          -3.5309826705      1.8729465668      0.8907535858 
  C48          -4.2649759978      0.8058310893      1.7131089760 
  C49          -2.7118963704      4.8454857670      4.8944950826 
  C50           2.0624516154      3.2868367453      3.0949776563 
  C51          -4.5162831552      2.8144587724      0.1865807432 
  C52          -4.0719194323      4.3780328055      5.4194910205 
  C53          -2.7667284067      6.3354331812      4.5202492358 
  H54           2.0768956615     -0.9486284185     -2.1960923989 
  H55           2.4197783462      0.7734750003     -1.9309267184 
  H56           2.2298637581     -1.8580460311      1.5101157100 
  H57           2.2091635408     -2.5417281641     -0.1260912353 
  H58           0.3521422977     -3.1716392449      0.7770261362 
  H59          -1.0078184407     -2.4136151434      1.6140490479 
  H60          -2.5206305298     -0.7945119635      0.4382724834 
  H61          -2.2656445046     -0.3632479577     -1.2675605766 
  H62           0.2641591675      0.4356798046     -2.5234107635 
  H63          -0.3386608685      2.3454066247     -3.9165848118 
  H64          -1.2131992594      4.4314662201     -2.8400506013 
  H65          -1.5286582942      4.4806970828     -0.3894235374 
  H66          -4.0740530953      3.1834406433      3.1434049108 
  H67          -0.1646255721      4.6543947873      4.0381076908 
  H68           1.3732038234      2.9518044268      1.1036987767 
  H69           1.1988923259      5.8125964242      2.1694651724 
  H70           0.8304349578      5.2870472987      0.5160619111 
  H71           2.4925110395      5.1772472035      1.1331597538 
  H72          -2.9598377942      1.3628091525      0.1110121688 
  H73          -4.9491194257      1.2555063308      2.4415630211 
  H74          -4.8565156911      0.1539828505      1.0584897798 
  H75          -3.5537018513      0.1909808854      2.2757198187 
  H76          -1.9777633807      4.7453505114      5.7089019826 
  H77           1.9641813970      4.0053112350      3.9183169139 
  H78           3.1135244396      3.2847121102      2.7817638336 
  H79           1.8164091407      2.2947927376      3.4867813042 
  H80          -5.1034355661      3.3881830338      0.9141853994 
  H81          -5.2163804484      2.2470925518     -0.4396342903 
  H82          -3.9849230205      3.5263321729     -0.4552194496 
  H83          -4.8719494825      4.6123724226      4.7060661109 
  H84          -4.3146813659      4.8883917819      6.3587481327 
  H85          -4.0936243348      3.2966873009      5.5951598464 
  H86          -3.4739227699      6.4946750901      3.6970629356 
  H87          -1.7864521403      6.7000547059      4.1932934656 
  H88          -3.0923190801      6.9430785298      5.3740512412 
  C89          -0.2168063251     -2.1498405288     -1.7468326703 
  H90          -0.8766421174     -2.9782143882     -2.0409205803 
  H91          -0.2758767441     -1.4023300011     -2.5433411106 
  H92           0.8008150746     -2.5480031971     -1.7166387198 
  C93           2.9070527840      0.7467398589      0.7002441930 
  H94           3.9886183085      0.5825905066      0.5980787583 
  H95           2.6858456761      1.7409261459      0.2984164962 
  H96           2.6658710510      0.7438890859      1.7654860209 
  H97           3.6563870816     -0.4397142754     -1.6014666803 
  H98           3.6755008483     -1.7716229673      0.4803027819 
  H99          -1.3011469927     -3.5708591766      0.2897160930 
  H100         -2.7649952678     -2.0070298946     -0.8272100525 
   
 
  bond lengths (angstroms):
 
 P1      -Pd2     :   2.291593      P1      -C27     :   1.922208
 P1      -C28     :   1.928145      P1      -C29     :   1.853621
 Pd2     -C8      :   2.280881      Pd2     -C9      :   2.270185
 N3      -C7      :   1.388818      N3      -H15     :   1.009572
 N3      -C19     :   1.389307      C4      -C5      :   1.377870
 C4      -C9      :   1.401707      C4      -F10     :   1.349336
 C5      -C6      :   1.393697      C5      -H11     :   1.081933
 C6      -C7      :   1.396927      C6      -H12     :   1.088421
 C7      -C8      :   1.420524      C8      -C9      :   1.420301
 C8      -H13     :   1.084525      C9      -H14     :   1.087191
 C16     -C17     :   1.392288      C16     -C21     :   1.394260
 C16     -H22     :   1.086615      C17     -C18     :   1.391872
 C17     -H23     :   1.086395      C18     -C19     :   1.401794
 C18     -H24     :   1.085549      C19     -C20     :   1.406419
 C20     -C21     :   1.387633      C20     -H25     :   1.089383
 C21     -H26     :   1.087680      C27     -C30     :   1.535061
 C27     -C31     :   1.535166      C27     -C93     :   1.534968
 C28     -C32     :   1.540701      C28     -C33     :   1.532936
 C28     -C89     :   1.533293      C29     -C34     :   1.406188
 C29     -C38     :   1.416729      C30     -H54     :   1.092330
 C30     -H55     :   1.093907      C30     -H97     :   1.099314
 C31     -H56     :   1.095208      C31     -H57     :   1.093902
 C31     -H98     :   1.097922      C32     -H58     :   1.093187
 C32     -H59     :   1.095999      C32     -H99     :   1.099330
 C33     -H60     :   1.092688      C33     -H61     :   1.095148
 C33     -H100    :   1.098785      C34     -C35     :   1.388374
 C34     -H62     :   1.082418      C35     -C36     :   1.390416
 C35     -H63     :   1.087523      C36     -C37     :   1.388018
 C36     -H64     :   1.087306      C37     -C38     :   1.406490
 C37     -H65     :   1.087417      C38     -C39     :   1.508813
 C39     -C40     :   1.410932      C39     -C44     :   1.415263
 C40     -C41     :   1.396315      C40     -C47     :   1.516461
 C41     -C42     :   1.390091      C41     -H66     :   1.085691
 C42     -C43     :   1.396537      C42     -C49     :   1.518989
 C43     -C44     :   1.391981      C43     -H67     :   1.089092
 C44     -C45     :   1.515904      C45     -C46     :   1.534088
 C45     -C50     :   1.531994      C45     -H68     :   1.092949
 C46     -H69     :   1.097179      C46     -H70     :   1.095926
 C46     -H71     :   1.097374      C47     -C48     :   1.534194
 C47     -C51     :   1.533989      C47     -H72     :   1.092906
 C48     -H73     :   1.095858      C48     -H74     :   1.096974
 C48     -H75     :   1.095665      C49     -C52     :   1.530946
 C49     -C53     :   1.537208      C49     -H76     :   1.101016
 C50     -H77     :   1.097155      C50     -H78     :   1.096750
 C50     -H79     :   1.094622      C51     -H80     :   1.096958
 C51     -H81     :   1.097354      C51     -H82     :   1.095908
 C52     -H83     :   1.097241      C52     -H84     :   1.096177
 C52     -H85     :   1.095737      C53     -H86     :   1.096867
 C53     -H87     :   1.095806      C53     -H88     :   1.097370
 C89     -H90     :   1.099124      C89     -H91     :   1.093932
 C89     -H92     :   1.093160      C93     -H94     :   1.098711
 C93     -H95     :   1.094899      C93     -H96     :   1.092207
 
  bond angles:
 
 C27     -P1      -Pd2     : 114.702819  C28     -P1      -Pd2     : 110.486072
 C28     -P1      -C27     : 108.184852  C29     -P1      -Pd2     : 113.661295
 C29     -P1      -C27     : 104.459761  C29     -P1      -C28     : 104.663011
 C8      -Pd2     -P1      : 146.356467  C9      -Pd2     -P1      : 153.830304
 C9      -Pd2     -C8      :  36.368405  H15     -N3      -C7      : 114.130575
 C19     -N3      -C7      : 131.413369  C19     -N3      -H15     : 114.445672
 C9      -C4      -C5      : 121.698975  F10     -C4      -C5      : 119.378774
 F10     -C4      -C9      : 118.872202  C6      -C5      -C4      : 119.289044
 H11     -C5      -C4      : 119.810427  H11     -C5      -C6      : 120.899081
[...]
    C51      X     0.00094 -0.00001  0.00001 -0.00001  0.00000 -0.00000
    C51      Y    -0.00046 -0.00000  0.00001  0.00001  0.00000  0.00000
    C51      Z    -0.00143 -0.00001 -0.00000 -0.00003  0.00001  0.00000
    C52      X     0.00127 -0.00001 -0.00000 -0.00001 -0.00033 -0.00000
    C52      Y     0.00008  0.00002  0.00002  0.00001  0.00033  0.00001
    C52      Z     0.00181  0.00000 -0.00001  0.00001 -0.00035  0.00000
    C53      X     0.00052 -0.00001  0.00000 -0.00001 -0.00003  0.00000
    C53      Y    -0.00003  0.00001 -0.00000  0.00001 -0.00000  0.00001
    C53      Z     0.00010  0.00001 -0.00002  0.00001 -0.00003  0.00000
    H54      X    -0.00009 -0.00029 -0.00015 -0.00097  0.00003  0.00003
    H54      Y    -0.00010 -0.00039 -0.00020 -0.00499  0.00005  0.00003
    H54      Z    -0.00010 -0.00040 -0.00020 -0.00338  0.00005  0.00003
    H55      X     0.00002 -0.00004  0.00002  0.00400 -0.00000  0.00001
    H55      Y    -0.00033  0.00040 -0.00012 -0.02539 -0.00005 -0.00003
    H55      Z     0.00014 -0.00015  0.00006  0.01015  0.00002  0.00002
    H56      X    -0.00005  0.00134  0.00076 -0.00051 -0.00005 -0.00003
    H56      Y     0.00001  0.00057  0.00016 -0.00033 -0.00001 -0.00001
    H56      Z     0.00008 -0.00497 -0.00184  0.00183  0.00008  0.00005
    H57      X    -0.00007 -0.00160 -0.00039  0.00014  0.00003  0.00003
    H57      Y    -0.00013 -0.00362 -0.00073  0.00025  0.00006  0.00004
    H57      Z    -0.00010 -0.00274 -0.00056  0.00014  0.00005  0.00005
    H58      X    -0.00011 -0.00023  0.00067 -0.00031  0.00005  0.00001
    H58      Y     0.00006  0.00011 -0.00029  0.00003 -0.00002 -0.00001
    H58      Z     0.00000  0.00000  0.00006 -0.00000  0.00001  0.00000
    H59      X     0.00002 -0.00012  0.00037 -0.00077 -0.00001 -0.00003
    H59      Y     0.00005  0.00005 -0.00040  0.00090  0.00000 -0.00001
    H59      Z     0.00007  0.00031 -0.00107  0.00218  0.00001  0.00003
    H60      X     0.00021 -0.00013  0.00001 -0.00062 -0.00003 -0.00002
    H60      Y    -0.00010  0.00008  0.00003  0.00043  0.00004  0.00001
    H60      Z    -0.00044  0.00021 -0.00001  0.00185  0.00003  0.00002
    H61      X     0.00009 -0.00001  0.00004  0.00073  0.00002  0.00000
    H61      Y    -0.00044 -0.00001 -0.00011 -0.00167 -0.00010 -0.00002
    H61      Z     0.00049  0.00002  0.00013  0.00091  0.00012  0.00002
    H62      X    -0.00078  0.00035 -0.00011 -0.31892  0.00049 -0.00001
    H62      Y     0.00189 -0.00081  0.00029  0.77981 -0.00120  0.00002
    H62      Z     0.00101 -0.00044  0.00016  0.42477 -0.00067  0.00000
    H63      X     0.00076 -0.00007  0.00002 -0.01155  0.00002 -0.00000
    H63      Y    -0.00042  0.00003 -0.00001  0.00286 -0.00001 -0.00000
    H63      Z    -0.00727  0.00074 -0.00025  0.12734 -0.00025  0.00005
    H64      X    -0.00326  0.00020 -0.00001  0.00483 -0.00003  0.00001
    H64      Y     0.01106 -0.00067  0.00004 -0.01574  0.00010 -0.00002
    H64      Z    -0.00744  0.00045 -0.00002  0.00901 -0.00007  0.00002
    H65      X    -0.00361  0.00014  0.00013  0.00550  0.00003  0.00001
    H65      Y     0.00835 -0.00030 -0.00029 -0.01258 -0.00008 -0.00001
    H65      Z     0.00480 -0.00018 -0.00016 -0.00717 -0.00002 -0.00001
    H66      X    -0.92124  0.00104 -0.00219  0.00082  0.00035 -0.00001
    H66      Y    -0.07523  0.00009 -0.00016  0.00004 -0.00007  0.00002
    H66      Z     0.23213 -0.00027  0.00053 -0.00025 -0.00002  0.00000
    H67      X     0.00409 -0.00005  0.00076 -0.00030 -0.00070 -0.00002
    H67      Y     0.00214 -0.00002  0.00058 -0.00025 -0.00057  0.00003
    H67      Z     0.00231 -0.00005  0.00068 -0.00035 -0.00054  0.00001
    H68      X     0.00022  0.00002 -0.00002  0.00012  0.00005 -0.00000
    H68      Y    -0.00060  0.00011  0.00009 -0.00020 -0.00009 -0.00000
    H68      Z    -0.00091  0.00018  0.00015 -0.00023 -0.00013 -0.00000
    H69      X     0.00009 -0.00003 -0.00002  0.00002 -0.00000  0.00002
    H69      Y    -0.00047  0.00011  0.00008 -0.00005 -0.00007 -0.00005
    H69      Z    -0.00048  0.00011  0.00008 -0.00003 -0.00006 -0.00006
    H70      X    -0.00008  0.00005  0.00004  0.00011  0.00003  0.00001
    H70      Y     0.00002 -0.00002 -0.00002 -0.00005 -0.00004 -0.00003
    H70      Z    -0.00012  0.00005  0.00005  0.00015  0.00006  0.00002
    H71      X     0.00052 -0.00035  0.00004 -0.00020  0.00020 -0.00005
    H71      Y     0.00001 -0.00005  0.00000 -0.00004  0.00004  0.00000
    H71      Z    -0.00015  0.00009 -0.00001  0.00006 -0.00007  0.00002
    H72      X    -0.00500 -0.00002 -0.00001 -0.00001  0.00008 -0.00000
    H72      Y     0.00203  0.00002  0.00002 -0.00014 -0.00008 -0.00000
    H72      Z     0.00356  0.00003  0.00003 -0.00010 -0.00015  0.00000
    H73      X    -0.02377  0.00004 -0.00026 -0.00003  0.00019 -0.00001
    H73      Y     0.01704 -0.00004  0.00018  0.00005 -0.00011 -0.00000
    H73      Z     0.02719 -0.00005  0.00026  0.00001 -0.00013 -0.00001
    H74      X     0.00324  0.00018 -0.00005  0.00026 -0.00014  0.00003
    H74      Y     0.00271  0.00016 -0.00006  0.00023 -0.00014  0.00002
    H74      Z     0.00428  0.00020 -0.00004  0.00024 -0.00015  0.00004
    H75      X    -0.00594  0.00012 -0.00021 -0.00008 -0.00005  0.00003
    H75      Y     0.00531 -0.00018  0.00021  0.00004  0.00005 -0.00005
    H75      Z    -0.00566  0.00012 -0.00022 -0.00008  0.00003  0.00000
    H76      X    -0.00013  0.00005  0.00038 -0.00002  0.00159 -0.00006
    H76      Y     0.00095  0.00000 -0.00007  0.00001  0.00165  0.00003
    H76      Z     0.00177  0.00004  0.00047 -0.00005 -0.00035 -0.00006
    H77      X    -0.00002 -0.00005 -0.00003  0.00000 -0.00000  0.00006
    H77      Y    -0.00061  0.00034  0.00049 -0.00005 -0.00019  0.00008
    H77      Z    -0.00077  0.00040  0.00049 -0.00010 -0.00026 -0.00000
    H78      X     0.00072 -0.00058 -0.00032 -0.00027  0.00015 -0.00012
    H78      Y    -0.00003 -0.00004 -0.00008 -0.00000 -0.00003  0.00002
    H78      Z    -0.00028  0.00015  0.00014  0.00008 -0.00003  0.00007
    H79      X    -0.00004  0.00007  0.00020  0.00002 -0.00010 -0.00023
    H79      Y    -0.00015  0.00027  0.00025 -0.00002 -0.00043 -0.00060
    H79      Z     0.00005 -0.00011 -0.00022  0.00001  0.00008  0.00001
    H80      X    -0.00990 -0.00001 -0.00004 -0.00001  0.00003  0.00001
    H80      Y     0.00966  0.00000  0.00005 -0.00001 -0.00002 -0.00001
    H80      Z     0.01240 -0.00000  0.00006  0.00002 -0.00002 -0.00002
    H81      X     0.00087  0.00012 -0.00010  0.00021 -0.00009  0.00002
    H81      Y     0.00140  0.00008 -0.00007  0.00011 -0.00005  0.00001
    H81      Z     0.00092  0.00010 -0.00009  0.00017 -0.00008  0.00002
    H82      X    -0.00355 -0.00004 -0.00005 -0.00012  0.00002 -0.00001
    H82      Y    -0.00478 -0.00006 -0.00008 -0.00017  0.00002 -0.00002
    H82      Z     0.00426  0.00004  0.00007  0.00014 -0.00002  0.00001
    H83      X    -0.01887  0.00010  0.00013  0.00003  0.00243 -0.00002
    H83      Y     0.00571 -0.00004 -0.00006 -0.00001 -0.00131  0.00000
    H83      Z    -0.01775  0.00010  0.00009  0.00004  0.00191 -0.00001
    H84      X     0.00106  0.00002 -0.00002  0.00004 -0.00046  0.00003
    H84      Y    -0.00618 -0.00006 -0.00001 -0.00007  0.00098 -0.00005
    H84      Z    -0.01097 -0.00013 -0.00000 -0.00015  0.00171 -0.00008
    H85      X     0.00037 -0.00002 -0.00002 -0.00001 -0.00219 -0.00002
    H85      Y    -0.00457 -0.00015 -0.00026 -0.00004 -0.00074 -0.00002
    H85      Z     0.00099  0.00002  0.00005  0.00001 -0.00118  0.00003
    H86      X    -0.00250  0.00004  0.00010  0.00001  0.00049 -0.00003
    H86      Y     0.00105 -0.00001 -0.00005  0.00000 -0.00010  0.00001
    H86      Z    -0.00299  0.00005  0.00010  0.00002  0.00055 -0.00002
    H87      X    -0.00366 -0.00000 -0.00008  0.00002 -0.00015 -0.00003
    H87      Y    -0.00159  0.00001 -0.00004  0.00002 -0.00022 -0.00000
    H87      Z     0.00111  0.00000  0.00002 -0.00000  0.00005  0.00003
    H88      X    -0.00058  0.00004 -0.00005  0.00006 -0.00015  0.00004
    H88      Y     0.00147 -0.00009  0.00011 -0.00012  0.00027 -0.00007
    H88      Z     0.00167 -0.00013  0.00015 -0.00017  0.00031 -0.00008
    C89      X    -0.00000  0.00002 -0.00001 -0.00087 -0.00000  0.00000
    C89      Y     0.00004 -0.00001  0.00002  0.00241  0.00000  0.00000
    C89      Z    -0.00002 -0.00000 -0.00001 -0.00247 -0.00000  0.00000
    H90      X    -0.00019  0.00008 -0.00007 -0.00213  0.00000  0.00003
    H90      Y    -0.00024  0.00012 -0.00009 -0.00193  0.00000  0.00003
    H90      Z    -0.00009  0.00008 -0.00005 -0.00107  0.00000  0.00002
    H91      X     0.00002  0.00000  0.00001 -0.00111  0.00000  0.00000
    H91      Y    -0.00026  0.00001 -0.00016 -0.03403 -0.00001 -0.00002
    H91      Z     0.00031 -0.00001  0.00019  0.03312  0.00002  0.00002
    H92      X     0.00014 -0.00017  0.00013  0.01067  0.00005 -0.00001
    H92      Y    -0.00004  0.00007 -0.00004 -0.00403 -0.00003 -0.00000
    H92      Z     0.00001  0.00001 -0.00000  0.00016 -0.00000 -0.00000
    C93      X    -0.00002  0.00017 -0.00009  0.00007 -0.00000  0.00000
    C93      Y     0.00003 -0.00037 -0.00008  0.00007  0.00001  0.00000
    C93      Z    -0.00003  0.00097  0.00044 -0.00020 -0.00002 -0.00000
    H94      X     0.00023 -0.00343  0.00027 -0.00065  0.00008 -0.00000
    H94      Y    -0.00005  0.00034 -0.00011  0.00018 -0.00001  0.00001
    H94      Z    -0.00003  0.00088  0.00007  0.00004 -0.00002 -0.00001
    H95      X     0.00004 -0.00123 -0.00033  0.00029  0.00003  0.00002
    H95      Y    -0.00036  0.00469  0.00130 -0.00114 -0.00018 -0.00006
    H95      Z     0.00017 -0.00202 -0.00062  0.00029  0.00009  0.00006
    H96      X    -0.00007  0.00273  0.00121 -0.00038 -0.00005 -0.00004
    H96      Y     0.00003 -0.00032 -0.00011 -0.00008  0.00002  0.00003
    H96      Z     0.00023 -0.01077 -0.00492  0.00198  0.00015  0.00004
    H97      X     0.00028 -0.00102 -0.00006  0.00672  0.00004 -0.00002
    H97      Y    -0.00006  0.00021  0.00002 -0.00249 -0.00001  0.00001
    H97      Z    -0.00002  0.00023  0.00003  0.00062 -0.00000  0.00001
    H98      X     0.00017 -0.01029 -0.00082 -0.00070  0.00009  0.00001
    H98      Y    -0.00003  0.00133  0.00011  0.00019 -0.00002 -0.00000
    H98      Z    -0.00001 -0.00208  0.00003 -0.00005 -0.00002 -0.00001
    H99      X    -0.00022  0.00017 -0.00003  0.00034  0.00002  0.00004
    H99      Y    -0.00028  0.00022 -0.00004  0.00046  0.00002  0.00005
    H99      Z    -0.00011  0.00010  0.00001  0.00014  0.00002  0.00004
    H100     X    -0.00040  0.00013 -0.00010  0.00013 -0.00001  0.00003
    H100     Y    -0.00056  0.00018 -0.00013  0.00015 -0.00002  0.00003
    H100     Z    -0.00019  0.00007 -0.00006 -0.00001 -0.00001  0.00002
  
  Number of imaginary frequencies:   0
   
  Writing vibrational animation data to red_elim_complex_L1_PL274_2.vib
  Writing IR vibrational spectrum data to red_elim_complex_L1_PL274_2_vib.spm
  rotational symmetry number:  1

  rotational temperatures (K):      0.003890      0.003404      0.002526
   
  The Quasi-Harmonic approximation will be applied to compute
  vibrational constributions to thermodynamic properties.
  Frequencies will be adjusted to a minimum value of  100.00 cm^-1.

  vibrational temperatures:
       mode:      1        2        3        4        5        6
  temp. (K):   143.88   143.88   143.88   143.88   143.88   143.88
   
       mode:      7        8        9       10       11       12
  temp. (K):   143.88   143.88   143.88   143.88   143.88   143.88
   
       mode:     13       14       15       16       17       18
  temp. (K):   143.88   143.88   143.88   143.88   145.06   156.37
   
       mode:     19       20       21       22       23       24
  temp. (K):   161.84   167.73   178.16   187.49   192.25   213.71
   
       mode:     25       26       27       28       29       30
  temp. (K):   220.35   221.65   228.22   259.87   278.52   285.89
   
       mode:     31       32       33       34       35       36
  temp. (K):   319.64   324.38   341.79   351.30   358.04   369.12
   
       mode:     37       38       39       40       41       42
  temp. (K):   373.09   375.95   383.76   387.98   394.47   398.37
   
       mode:     43       44       45       46       47       48
  temp. (K):   407.74   413.11   418.38   422.01   428.90   436.79
   
       mode:     49       50       51       52       53       54
  temp. (K):   438.70   445.69   450.50   471.59   480.80   489.73
   
       mode:     55       56       57       58       59       60
  temp. (K):   508.61   509.99   528.39   529.06   531.26   553.06
   
       mode:     61       62       63       64       65       66
  temp. (K):   563.96   583.33   587.58   594.91   599.32   605.09
   
       mode:     67       68       69       70       71       72
  temp. (K):   613.63   625.18   632.57   649.16   686.51   689.56
   
       mode:     73       74       75       76       77       78
  temp. (K):   697.31   721.06   736.52   739.67   743.72   759.94
   
       mode:     79       80       81       82       83       84
  temp. (K):   770.63   791.01   817.20   832.83   837.91   866.11
   
       mode:     85       86       87       88       89       90
  temp. (K):   877.50   883.14   903.23   915.17   940.24   947.03
   
       mode:     91       92       93       94       95       96
  temp. (K):   952.80   976.56  1006.39  1032.02  1079.49  1102.96
   
       mode:     97       98       99      100      101      102
  temp. (K):  1112.00  1127.76  1140.36  1149.79  1158.82  1176.67
   
       mode:    103      104      105      106      107      108
  temp. (K):  1200.65  1201.31  1216.69  1220.60  1225.91  1243.96
   
       mode:    109      110      111      112      113      114
  temp. (K):  1295.30  1298.36  1303.96  1310.51  1311.42  1320.82
   
       mode:    115      116      117      118      119      120
  temp. (K):  1337.14  1345.49  1361.68  1368.20  1373.66  1375.95
   
       mode:    121      122      123      124      125      126
  temp. (K):  1378.27  1385.90  1393.13  1393.33  1406.09  1411.76
   
       mode:    127      128      129      130      131      132
  temp. (K):  1413.78  1414.51  1418.94  1421.70  1423.09  1430.77
   
       mode:    133      134      135      136      137      138
  temp. (K):  1449.21  1456.58  1466.44  1472.87  1476.55  1503.65
   
       mode:    139      140      141      142      143      144
  temp. (K):  1515.50  1518.54  1522.03  1539.63  1541.86  1575.72
   
       mode:    145      146      147      148      149      150
  temp. (K):  1594.08  1601.91  1610.65  1638.66  1639.26  1647.70
   
       mode:    151      152      153      154      155      156
  temp. (K):  1652.47  1654.63  1671.83  1682.33  1711.25  1721.99
   
       mode:    157      158      159      160      161      162
  temp. (K):  1733.10  1739.94  1740.63  1743.53  1750.63  1767.15
   
       mode:    163      164      165      166      167      168
  temp. (K):  1774.52  1775.06  1782.78  1791.59  1803.02  1820.64
   
       mode:    169      170      171      172      173      174
  temp. (K):  1821.57  1825.02  1866.69  1868.38  1869.47  1884.59
   
       mode:    175      176      177      178      179      180
  temp. (K):  1911.45  1921.18  1936.00  1945.91  1948.32  1963.25
   
       mode:    181      182      183      184      185      186
  temp. (K):  1971.45  1980.23  1994.14  1999.05  2014.19  2024.54
   
       mode:    187      188      189      190      191      192
  temp. (K):  2040.41  2042.32  2043.47  2047.69  2049.05  2051.24
   
       mode:    193      194      195      196      197      198
  temp. (K):  2052.46  2060.14  2071.07  2076.94  2082.37  2089.33
   
       mode:    199      200      201      202      203      204
  temp. (K):  2099.52  2115.52  2132.94  2154.72  2156.63  2161.46
   
       mode:    205      206      207      208      209      210
  temp. (K):  2163.80  2171.53  2173.63  2174.65  2179.41  2180.12
   
       mode:    211      212      213      214      215      216
  temp. (K):  2182.42  2184.82  2187.75  2188.05  2191.59  2194.90
   
       mode:    217      218      219      220      221      222
  temp. (K):  2198.89  2199.55  2200.74  2205.37  2206.32  2209.86
   
       mode:    223      224      225      226      227      228
  temp. (K):  2210.37  2214.61  2219.20  2223.73  2227.10  2232.37
   
       mode:    229      230      231      232      233      234
  temp. (K):  2233.34  2242.35  2285.00  2337.10  2342.23  2367.24
   
       mode:    235      236      237      238      239      240
  temp. (K):  2373.01  2381.32  2391.99  2412.52  2413.83  4345.48
   
       mode:    241      242      243      244      245      246
  temp. (K):  4362.84  4371.38  4372.88  4372.92  4374.36  4374.67
   
       mode:    247      248      249      250      251      252
  temp. (K):  4375.93  4379.00  4381.58  4382.41  4383.64  4384.19
   
       mode:    253      254      255      256      257      258
  temp. (K):  4471.48  4472.40  4472.86  4477.70  4481.67  4482.46
   
       mode:    259      260      261      262      263      264
  temp. (K):  4482.89  4484.05  4485.22  4487.57  4488.85  4491.24
   
       mode:    265      266      267      268      269      270
  temp. (K):  4497.33  4500.28  4500.95  4507.14  4509.19  4514.65
   
       mode:    271      272      273      274      275      276
  temp. (K):  4516.67  4521.94  4522.58  4538.08  4543.70  4554.14
   
       mode:    277      278      279      280      281      282
  temp. (K):  4554.91  4557.77  4562.15  4567.73  4579.33  4579.74
   
       mode:    283      284      285      286      287      288
  temp. (K):  4586.41  4593.29  4598.68  4602.90  4609.33  4615.70
   
       mode:    289      290      291      292      293      294
  temp. (K):  4620.49  4635.50  4647.66  4686.58  4696.22  5181.52
   
   
  Thermodynamic properties calculated assuming an ideal gas

  In the table below, the units for temperature
  are kelvins, the units for U, H, and G are
  kcal/mol and the units for Cv and S are cal/(mol K)

  The zero point energy (ZPE):    548.146 kcal/mol
  is not included in U, H, or G in the table below
  
 
  =============================================================================
  Thermodynamic properties for P = 1.00E+00 atm, calculated at   1 temperatures


  T =   298.15 K, P = 1.00E+00 atm
   
                  U         Cv          S          H          G        ln(Q)
              =========  =========  =========  =========  =========  =========
  trans.          0.889      2.981     45.591      1.481    -12.112   20.44238
  rot.            0.889      2.981     38.205      0.889    -10.502   17.72540
  vib.           27.704    182.604    167.514     27.704    -22.240   37.53758
  elec.           0.000      0.000      0.000      0.000      0.000    0.00000
  ----------------------------------------------------------------------------
  total          29.481    188.565    251.310     30.074    -44.854   75.70536
   
   Total internal energy, Utot(SCFE + ZPE + U):   -2216.833660 hartrees
   Total enthalpy, Htot (Utot + nRT), with n=1:   -2216.832716 hartrees
    Total Gibbs free energy, Gtot (Htot - T*S):   -2216.952122 hartrees
   
FATAL MAE_GET_COORDS(): TOO MANY ATOMS IN CT BLOCK
  end of program freq
   
 Time(freq)  user:        0.3  user+sys:        0.3  wallclock:        0.4
  
  start of program post
  
  Writing input files for PBF
FATAL MAE_GET_COORDS(): TOO MANY ATOMS IN CT BLOCK
  end of program post
   
 Time(post)  user:        0.1  user+sys:        0.1  wallclock:        0.1

 Total cpu seconds     user:   65807.066   user+sys:   65807.066
  
 Total elapsed time:    66124 seconds

Job red_elim_complex_L1_PL274_2 completed on bp1-compute154.data.bp.acrc.priv at Fri Mar 22 17:21:05 2024
