Job red_elim_N_trans_L1_PL274 started on bp1-compute154.data.bp.acrc.priv at Mon Mar 18 17:46:49 2024
jobid: bp1-compute154-0-65f87e06

  +--------------------------------------------------------------------+
  |  Jaguar version 11.4, release 135                                  |
  |                                                                    |
  |  Copyright Schrodinger, Inc.                                       |
  |  All Rights Reserved.                                              |
  |                                                                    |
  |  The following have contributed to Jaguar (listed alphabetically): |
  |  Mike Beachy, Art Bochevarov, Dale Braden, Yixiang Cao,            |
  |  Alan Chien, Chris Cortis, Rich Friesner, Bill Goddard,            |
  |  Hod Greeley, Tom Hughes, Leif Jacobson, Jean-Marc Langlois,       |
  |  Daniel Levine, Daniel Mainz, Rob Murphy, Dean Philipp,            |
  |  Tom Pollard, Murco Ringnalda, Mark Watson, Haoyu Yu.              |
  |                                                                    |
  |  Use of this program should be acknowledged in publications as:    |
  |                                                                    |
  |  Jaguar, version 11.4, Schrodinger, Inc., New York, NY, 2021.      |
  |                                                                    |
  |  A. D. Bochevarov, E. Harder, T. F. Hughes, J. R. Greenwood,       |
  |  D. A. Braden, D. M. Philipp, D. Rinaldo, M. D. Halls,             |
  |  J. Zhang, R. A. Friesner, "Jaguar: A High-Performance Quantum     |
  |  Chemistry Software Program with Strengths in Life and Materials   |
  |  Sciences", Int. J. Quantum Chem., 2013, 113(18), 2110-2142.       |
  +--------------------------------------------------------------------+
  
  start of program pre
  
  Job name: red_elim_N_trans_L1_PL274
  Executables used: /sw/apps/schrodinger2021-4/jaguar-v11.4/bin/Linux-x86_64
  Temporary files : /tmp/ar21627/red_elim_N_trans_L1_PL274
  Maestro file (input):  red_elim_N_trans_L1_PL274.mae
  Maestro file (output): red_elim_N_trans_L1_PL274.01.mae
  
 Contents of input file: &gen section only
 ----------------Contents start----------------
&gen
dftname=b3pw91-d3
basis=6-31G*
numd=5
ip11=2
iaccg=3
isolv=2
igeopt=1
solvent=benzene
ifreq=1
&
 -----------------Contents end-----------------
 
  basis set:             non_standard                    
  net molecular charge:    0
  multiplicity:            1
  
  This run will use ECP on 1 atom
  number of basis functions....          761
  
  input atom labels were not unique
  original atom labels:
 P1       Pd2      N2       C16      C17      C18      C19      C20     
 C21      F10      H23      H24      H25      H26      H18      C22     
 C23      C24      C25      C26      C27      H22      H27      H28     
 H29      H30      C3       C4       C5       C6       C7       C8      
 C9       C10      C11      C12      C13      C14      C15      C16     
 C17      C18      C19      C20      C21      C22      C23      C24     
 C25      C26      C27      C28      C29      H30      H31      H32     
 H33      H34      H35      H36      H37      H38      H39      H40     
 H41      H42      H43      H44      H45      H46      H47      H48     
 H49      H50      H51      H52      H53      H54      H55      H56     
 H57      H58      H59      H60      H61      H62      H63      H64     
 C65      H66      H67      H68      C69      H70      H71      H72     
 H73      H74      H75      H76     
  new atom labels:
 P1       Pd2      N3       C4       C5       C6       C7       C8      
 C9       F10      H11      H12      H13      H14      H15      C16     
 C17      C18      C19      C20      C21      H22      H23      H24     
 H25      H26      C27      C28      C29      C30      C31      C32     
 C33      C34      C35      C36      C37      C38      C39      C40     
 C41      C42      C43      C44      C45      C46      C47      C48     
 C49      C50      C51      C52      C53      H54      H55      H56     
 H57      H58      H59      H60      H61      H62      H63      H64     
 H65      H66      H67      H68      H69      H70      H71      H72     
 H73      H74      H75      H76      H77      H78      H79      H80     
 H81      H82      H83      H84      H85      H86      H87      H88     
 C89      H90      H91      H92      C93      H94      H95      H96     
 H97      H98      H99      H100    
 
  
 Input geometry:
                                   angstroms
  atom               x                 y                 z
  P1            0.0000000000      0.0000000000      0.0000000000 
  Pd2           0.0000000000      0.0000000000      2.3923182082 
  N3            2.0248930909      0.0000000000      2.1745882742 
  C4            0.2206536699     -0.0004682074      7.2562187795 
  C5            0.2132510608      1.1987257052      6.5347188772 
  C6            0.1940987259      1.1999612069      5.1371944723 
  C7            0.1665902834      0.0035440496      4.4021695345 
  C8            0.1874309102     -1.1950990358      5.1348464771 
  C9            0.2094305550     -1.1978928222      6.5306472385 
  F10           0.2210357163     -0.0074586338      8.5892003953 
  H11           0.2335369015      2.1463964378      7.0741070950 
  H12           0.2136829301      2.1567974204      4.6153218170 
  H13           0.2023730899     -2.1504656761      4.6104898253 
  H14           0.2240023780     -2.1467925995      7.0679212173 
  H15           2.4443237244      1.0018584917      2.0003542185 
  C16           4.0295452266     -1.9114413017      5.4205510973 
  C17           3.6384422407     -2.6598336373      4.2981422519 
  C18           2.9786251993     -2.0306962813      3.2297565963 
  C19           2.7099111439     -0.6531665897      3.2837797861 
  C20           3.1009671510      0.0952705404      4.4061125628 
  C21           3.7608311712     -0.5339116101      5.4745742872 
  H22           4.5479091451     -2.4057027176      6.2598937335 
  H23           3.8496154531     -3.7420855516      4.2558188718 
  H24           2.6713875323     -2.6186419814      2.3480145026 
  H25           2.8898358885      1.1773902725      4.4484636576 
  H26           4.0680688560      0.0540340938      6.3563163721 
  C27           1.7831463244      0.0000000000     -0.8473727461 
  C28          -0.9886469542     -1.5695736595     -0.6867421696 
  C29          -0.7901183997      1.5049379058     -0.8479766882 
  C30           1.8652236082      0.0548153147     -2.3939977476 
  C31           2.5239751135     -1.2700843094     -0.3645010905 
  C32          -0.7983231708     -2.6816138379      0.3763485688 
  C33          -2.4878216583     -1.2112625211     -0.8064495247 
  C34          -0.8892394008      1.4114160136     -2.2607084982 
  C35          -1.2546226733      2.4840588565     -3.0851574536 
  C36          -1.5207952457      3.7270633661     -2.4988050521 
  C37          -1.4998965492      3.8273578633     -1.1029466553 
  C38          -1.1937791729      2.7411469086     -0.2403429206 
  C39          -1.4955600723      3.0253394478      1.2179072042 
  C40          -2.8573804410      2.9258007927      1.6427194187 
  C41          -3.1835632123      3.2671285981      2.9669664830 
  C42          -2.2184617792      3.7066195558      3.8875966319 
  C43          -0.9059156283      3.8714990162      3.4252879495 
  C44          -0.5242988337      3.5606149275      2.1076927210 
  C45           0.8903072400      3.9069269557      1.6394151962 
  C46           0.9383018438      5.3645307443      1.1161004170 
  C47          -3.9942841535      2.5263893501      0.6865304301 
  C48          -5.0420068080      1.5792654208      1.3115151138 
  C49          -2.5643922096      3.9623566972      5.3522129059 
  C50           1.9790472741      3.6993159789      2.7112369243 
  C51          -4.7121107901      3.7857371286      0.1384320570 
  C52          -2.9590991633      2.6441334860      6.0577614421 
  C53          -3.6562524435      5.0419270943      5.5212642682 
  H54           1.3657093114     -0.7799130754     -2.9078132675 
  H55           1.4803630968      1.0048275598     -2.7998800482 
  H56           2.5173147849     -1.3496627875      0.7346946624 
  H57           2.1017488047     -2.1910767731     -0.8041808148 
  H58           0.2645501696     -2.9543819690      0.5016635869 
  H59          -1.1954620983     -2.3739848413      1.3566866633 
  H60          -2.8745272637     -0.7967271580      0.1378559733 
  H61          -2.6761453324     -0.4931763301     -1.6243074748 
  H62          -0.6668554910      0.4562132947     -2.7391918417 
  H63          -1.3132346546      2.3437192186     -4.1713334739 
  H64          -1.7763881926      4.5999501479     -3.1116595861 
  H65          -1.7717165211      4.7780348876     -0.6311032179 
  H66          -4.2228968831      3.1519016141      3.2973832778 
  H67          -0.1458421643      4.2343620195      4.1269936111 
  H68           1.1276614546      3.2434762284      0.7909457083 
  H69           0.6687945106      6.0742005961      1.9214661099 
  H70           0.2397811224      5.5249556070      0.2757633575 
  H71           1.9575479326      5.6181635074      0.7655036563 
  H72          -3.5450204230      1.9943108666     -0.1710626328 
  H73          -5.6529166403      2.0898430086      2.0802255420 
  H74          -5.7393517058      1.2241094154      0.5284041644 
  H75          -4.5530067634      0.7093391717      1.7781370610 
  H76          -1.6429003120      4.3395922896      5.8404978839 
  H77           1.8882160219      4.4345826098      3.5337800204 
  H78           2.9783958680      3.8431453967      2.2586305933 
  H79           1.9404016142      2.6824878981      3.1362898761 
  H80          -5.1559012677      4.3676159368      0.9685996882 
  H81          -5.5306303802      3.4995242068     -0.5507058279 
  H82          -4.0239116191      4.4517581053     -0.4098786963 
  H83          -3.9048202190      2.2454047989      5.6452470654 
  H84          -3.1042172200      2.8097039111      7.1433702254 
  H85          -2.1833050044      1.8725387701      5.9080647365 
  H86          -4.6088031266      4.7234831349      5.0576118387 
  H87          -3.3573436749      5.9970890541      5.0511848065 
  H88          -3.8569602758      5.2325977594      6.5931467838 
  C89          -0.5441708763     -2.1598303215     -2.0464615814 
  H90          -1.1856029942     -3.0417664424     -2.2477001319 
  H91          -0.6839976165     -1.4712621932     -2.8981229103 
  H92           0.4993445642     -2.5142764624     -2.0464974490 
  C93           2.5160792963      1.2658499196     -0.3495850975 
  H94           3.5592243218      1.2394134262     -0.7263030562 
  H95           2.0423449106      2.1774381524     -0.7572142958 
  H96           2.5500876307      1.3151497824      0.7482272982 
  H97           2.9402802330      0.0025088778     -2.6612312077 
  H98           3.5817627609     -1.2058906194     -0.6913890209 
  H99          -1.3445468212     -3.5877674888      0.0425532017 
  H100         -3.0522249256     -2.1385459761     -1.0343750224 
   
  principal moments of inertia:
        amu*angstrom^2:     6175.30074     7609.98433    10562.97990
                g*cm^2: 1.02543268E-36 1.26366747E-36 1.75402386E-36
   
  rotational constants:
               cm^(-1):      0.00272985      0.00221520      0.00159592
                   GHz:      0.08183877      0.06640999      0.04784436
   
  Molecular weight:     717.31 amu
   
  Stoichiometry: PdC41PNH55F
  Molecular Point Group: C1      
  Point Group used: C1
  
 
Number of optimization coordinates:   329
Number of independent coordinates:    329
Number of non-redundant coordinates:  294
Number of frozen coordinates:           0
Number of harmonic constraints:         0
 
Number of geometric degrees of freedom:   294
Maximum geometric degrees of freedom:     294
 " " " " " excluding dummy atoms:         294
 
 
  bond lengths (angstroms):
 
 P1      -Pd2     :   2.392318      P1      -C27     :   1.974247
 P1      -C28     :   1.978029      P1      -C29     :   1.899524
 Pd2     -N3      :   2.036565      Pd2     -C7      :   2.016747
 N3      -H15     :   1.100000      N3      -C19     :   1.458143
 C4      -C5      :   1.399530      C4      -C9      :   1.400145
 C4      -F10     :   1.333000      C5      -C6      :   1.397656
 C5      -H11     :   1.090610      C6      -C7      :   1.404433
 C6      -H12     :   1.090078      C7      -C8      :   1.404989
 C8      -C9      :   1.395977      C8      -H13     :   1.089908
 C9      -H14     :   1.090544      C16     -C17     :   1.404583
 C16     -C21     :   1.404533      C16     -H22     :   1.103400
 C17     -C18     :   1.404500      C17     -H23     :   1.103474
 C18     -C19     :   1.404533      C18     -H24     :   1.103424
 C19     -C20     :   1.404533      C20     -C21     :   1.404600
 C20     -H25     :   1.103337      C21     -H26     :   1.103424
 C27     -C30     :   1.549771      C27     -C31     :   1.547613
 C27     -C93     :   1.545108      C28     -C32     :   1.550167
 C28     -C33     :   1.546041      C28     -C89     :   1.547514
 C29     -C34     :   1.419289      C29     -C38     :   1.435400
 C30     -H54     :   1.100133      C30     -H55     :   1.102443
 C30     -H97     :   1.109007      C31     -H56     :   1.102093
 C31     -H57     :   1.104455      C31     -H98     :   1.109005
 C32     -H58     :   1.104448      C32     -H59     :   1.101552
 C32     -H99     :   1.109457      C33     -H60     :   1.101405
 C33     -H61     :   1.104538      C33     -H100    :   1.109214
 C34     -C35     :   1.401351      C34     -H62     :   1.091244
 C35     -C36     :   1.399899      C35     -H63     :   1.096772
 C36     -C37     :   1.399613      C36     -H64     :   1.096745
 C37     -C38     :   1.420439      C37     -H65     :   1.095586
 C38     -C39     :   1.516025      C39     -C40     :   1.430010
 C39     -C44     :   1.421825      C40     -C41     :   1.405891
 C40     -C47     :   1.538303      C41     -C42     :   1.404327
 C41     -H66     :   1.096662      C42     -C43     :   1.401318
 C42     -C49     :   1.526489      C43     -C44     :   1.406534
 C43     -H67     :   1.096254      C44     -C45     :   1.529812
 C45     -C46     :   1.549442      C45     -C50     :   1.541836
 C45     -H68     :   1.102907      C46     -H69     :   1.106743
 C46     -H70     :   1.104461      C46     -H71     :   1.107299
 C47     -C48     :   1.544465      C47     -C51     :   1.549724
 C47     -H72     :   1.104722      C48     -H73     :   1.106714
 C48     -H74     :   1.107108      C48     -H75     :   1.101648
 C49     -C52     :   1.546384      C49     -C53     :   1.544736
 C49     -H76     :   1.108998      C50     -H77     :   1.106998
 C50     -H78     :   1.106452      C50     -H79     :   1.102771
 C51     -H80     :   1.106667      C51     -H81     :   1.107611
 C51     -H82     :   1.103561      C52     -H83     :   1.106138
 C52     -H84     :   1.107709      C52     -H85     :   1.104366
 C53     -H86     :   1.106225      C53     -H87     :   1.105738
 C53     -H88     :   1.107055      C89     -H90     :   1.108938
 C89     -H91     :   1.104085      C89     -H92     :   1.102069
 C93     -H94     :   1.109399      C93     -H95     :   1.105251
 C93     -H96     :   1.099445
 
  bond angles:
 
 C27     -P1      -Pd2     : 115.417634  C28     -P1      -Pd2     : 110.315238
 C28     -P1      -C27     : 107.602855  C29     -P1      -Pd2     : 116.513936
 C29     -P1      -C27     : 100.607821  C29     -P1      -C28     : 105.413350
 N3      -Pd2     -P1      :  83.862758  C7      -Pd2     -P1      : 175.260696
 C7      -Pd2     -N3      :  91.399003  H15     -N3      -Pd2     : 113.331428
 C19     -N3      -Pd2     : 112.691549  C19     -N3      -H15     : 110.446772
 C9      -C4      -C5      : 117.748983  F10     -C4      -C5      : 121.333471
 F10     -C4      -C9      : 120.912073  C6      -C5      -C4      : 121.085167
 H11     -C5      -C4      : 119.306782  H11     -C5      -C6      : 119.604803
 C7      -C6      -C5      : 121.522045  H12     -C6      -C5      : 118.635292
 H12     -C6      -C7      : 119.838237  C6      -C7      -Pd2     : 121.647118
 C8      -C7      -Pd2     : 121.293709  C8      -C7      -C6      : 116.972232
 C9      -C8      -C7      : 121.557740  H13     -C8      -C7      : 119.810802
 H13     -C8      -C9      : 118.624739  C8      -C9      -C4      : 121.101860
 H14     -C9      -C4      : 119.256721  H14     -C9      -C8      : 119.640461
 C21     -C16     -C17     : 120.002746  H22     -C16     -C17     : 120.000393
 H22     -C16     -C21     : 119.996860  C18     -C17     -C16     : 120.000393
 H23     -C17     -C16     : 119.995826  H23     -C17     -C18     : 120.003781
 C19     -C18     -C17     : 119.996860  H24     -C18     -C17     : 119.999284
 H24     -C18     -C19     : 120.003855  C18     -C19     -N3      : 119.996860
 C20     -C19     -N3      : 119.996860  C20     -C19     -C18     : 120.006279
 C21     -C20     -C19     : 119.996860  H25     -C20     -C19     : 120.001259
 H25     -C20     -C21     : 120.001881  C20     -C21     -C16     : 119.996860
 H26     -C21     -C16     : 120.003855  H26     -C21     -C20     : 119.999284
 C30     -C27     -P1      : 118.435966  C31     -C27     -P1      : 107.363714
 C31     -C27     -C30     : 108.363978  C93     -C27     -P1      : 106.867607
 C93     -C27     -C30     : 105.510586  C93     -C27     -C31     : 110.166900
 C32     -C28     -P1      : 105.650726  C33     -C28     -P1      : 109.125727
 C33     -C28     -C32     : 109.780136  C89     -C28     -P1      : 117.655696
 C89     -C28     -C32     : 107.078681  C89     -C28     -C33     : 107.390303
 C34     -C29     -P1      : 114.910189  C38     -C29     -P1      : 127.613023
 C38     -C29     -C34     : 117.288667  H54     -C30     -C27     : 114.532958
 H55     -C30     -C27     : 112.297122  H55     -C30     -H54     : 108.867652
 H97     -C30     -C27     : 106.866856  H97     -C30     -H54     : 106.966915
 H97     -C30     -H55     : 106.878241  H56     -C31     -C27     : 111.564943
 H57     -C31     -C27     : 112.156573  H57     -C31     -H56     : 109.543807
 H98     -C31     -C27     : 108.488385  H98     -C31     -H56     : 107.693622
 H98     -C31     -H57     : 107.191431  H58     -C32     -C28     : 111.909222
 H59     -C32     -C28     : 111.452173  H59     -C32     -H58     : 108.357701
 H99     -C32     -C28     : 108.610725  H99     -C32     -H58     : 107.831746
 H99     -C32     -H59     : 108.563238  H60     -C33     -C28     : 111.180188
 H61     -C33     -C28     : 111.921524  H61     -C33     -H60     : 109.286245
 H100    -C33     -C28     : 108.395216  H100    -C33     -H60     : 108.189506
 H100    -C33     -H61     : 107.733199  C35     -C34     -C29     : 123.599104
 H62     -C34     -C29     : 118.678591  H62     -C34     -C35     : 117.721925
 C36     -C35     -C34     : 118.868590  H63     -C35     -C34     : 119.909520
 H63     -C35     -C36     : 121.215735  C37     -C36     -C35     : 118.588670
 H64     -C36     -C35     : 121.127678  H64     -C36     -C37     : 120.247906
 C38     -C37     -C36     : 123.646751  H65     -C37     -C36     : 119.209043
 H65     -C37     -C38     : 117.096095  C37     -C38     -C29     : 117.523625
 C39     -C38     -C29     : 128.653754  C39     -C38     -C37     : 113.446166
 C40     -C39     -C38     : 117.533585  C44     -C39     -C38     : 122.449022
 C44     -C39     -C40     : 119.395310  C41     -C40     -C39     : 118.938223
 C47     -C40     -C39     : 122.495958  C47     -C40     -C41     : 118.493284
 C42     -C41     -C40     : 122.278192  H66     -C41     -C40     : 118.565936
 H66     -C41     -C42     : 119.122180  C43     -C42     -C41     : 117.661255
 C49     -C42     -C41     : 121.714388  C49     -C42     -C43     : 120.603101
 C44     -C43     -C42     : 122.491344  H67     -C43     -C42     : 118.501880
 H67     -C43     -C44     : 118.990609  C43     -C44     -C39     : 118.953890
 C45     -C44     -C39     : 121.690431  C45     -C44     -C43     : 119.182645
 C46     -C45     -C44     : 110.180843  C50     -C45     -C44     : 114.184988
 C50     -C45     -C46     : 109.851523  H68     -C45     -C44     : 107.356126
 H68     -C45     -C46     : 107.421500  H68     -C45     -C50     : 107.567152
 H69     -C46     -C45     : 110.481288  H70     -C46     -C45     : 111.964181
 H70     -C46     -H69     : 107.849514  H71     -C46     -C45     : 110.544137
 H71     -C46     -H69     : 107.919333  H71     -C46     -H70     : 107.937853
 C48     -C47     -C40     : 114.145295  C51     -C47     -C40     : 110.559343
 C51     -C47     -C48     : 109.100865  H72     -C47     -C40     : 107.880461
 H72     -C47     -C48     : 107.136859  H72     -C47     -C51     : 107.770660
 H73     -C48     -C47     : 111.877424  H74     -C48     -C47     : 109.741743
 H74     -C48     -H73     : 106.954839  H75     -C48     -C47     : 110.764840
 H75     -C48     -H73     : 108.368321  H75     -C48     -H74     : 109.018969
 C52     -C49     -C42     : 110.658205  C53     -C49     -C42     : 112.474040
 C53     -C49     -C52     : 111.432837  H76     -C49     -C42     : 106.925793
 H76     -C49     -C52     : 107.528017  H76     -C49     -C53     : 107.542121
 H77     -C50     -C45     : 111.663558  H78     -C50     -C45     : 109.628065
 H78     -C50     -H77     : 106.960803  H79     -C50     -C45     : 111.552585
 H79     -C50     -H77     : 108.854276  H79     -C50     -H78     : 108.009914
 H80     -C51     -C47     : 110.347547  H81     -C51     -C47     : 110.631940
 H81     -C51     -H80     : 107.833481  H82     -C51     -C47     : 112.166850
 H82     -C51     -H80     : 107.786441  H82     -C51     -H81     : 107.918693
 H83     -C52     -C49     : 110.815466  H84     -C52     -C49     : 110.681673
 H84     -C52     -H83     : 107.900400  H85     -C52     -C49     : 110.759160
 H85     -C52     -H83     : 107.349544  H85     -C52     -H84     : 109.226744
 H86     -C53     -C49     : 111.197675  H87     -C53     -C49     : 111.475475
 H87     -C53     -H86     : 107.653118  H88     -C53     -C49     : 110.761272
 H88     -C53     -H86     : 107.414399  H88     -C53     -H87     : 108.170877
 H90     -C89     -C28     : 107.257040  H91     -C89     -C28     : 113.798039
 H91     -C89     -H90     : 106.424803  H92     -C89     -C28     : 113.244804
 H92     -C89     -H90     : 106.971719  H92     -C89     -H91     : 108.691356
 H94     -C93     -C27     : 108.488016  H95     -C93     -C27     : 110.705930
 H95     -C93     -H94     : 107.303973  H96     -C93     -C27     : 111.906990
 H96     -C93     -H94     : 108.122439  H96     -C93     -H95     : 110.153626
 
  torsional angles:
 
 P1      -Pd2     -N3      -H15     :  82.697021
 P1      -Pd2     -N3      -C19     :-150.953049
 P1      -Pd2     -C7      -C6      :  90.381529
 P1      -Pd2     -C7      -C8      : -93.112019
 P1      -C27     -C30     -H54     : -59.388644
 P1      -C27     -C30     -H55     :  65.456959
 P1      -C27     -C30     -H97     :-177.655655
 P1      -C27     -C31     -H56     : -52.264827
 P1      -C27     -C31     -H57     :  71.055768
 P1      -C27     -C31     -H98     :-170.737358
 P1      -C27     -C93     -H94     : 174.235630
 P1      -C27     -C93     -H95     : -68.269516
 P1      -C27     -C93     -H96     :  55.028918
 P1      -C28     -C32     -H58     : -61.587682
 P1      -C28     -C32     -H59     :  59.930593
 P1      -C28     -C32     -H99     : 179.484556
 P1      -C28     -C33     -H60     : -52.261846
 P1      -C28     -C33     -H61     :  70.269199
 P1      -C28     -C33     -H100    :-171.055930
 P1      -C28     -C89     -H90     : 178.243253
 P1      -C28     -C89     -H91     : -64.331096
 P1      -C28     -C89     -H92     :  60.462339
 P1      -C29     -C34     -C35     :-170.210970
 P1      -C29     -C34     -H62     :   9.559426
 P1      -C29     -C38     -C37     : 167.022163
 P1      -C29     -C38     -C39     : -20.537445
 Pd2     -P1      -C27     -C30     :-177.694779
 Pd2     -P1      -C27     -C31     :  59.300540
 Pd2     -P1      -C27     -C93     : -58.880810
 Pd2     -P1      -C28     -C32     : -30.327343
 Pd2     -P1      -C28     -C33     :  87.650420
 Pd2     -P1      -C28     -C89     :-149.743031
 Pd2     -P1      -C29     -C34     :-174.148580
 Pd2     -P1      -C29     -C38     :  11.014824
 Pd2     -N3      -C19     -C18     :  90.105271
 Pd2     -N3      -C19     -C20     : -89.894729
 Pd2     -C7      -C6      -C5      : 175.358092
 Pd2     -C7      -C6      -H12     :  -5.417776
 Pd2     -C7      -C8      -C9      :-175.508721
 Pd2     -C7      -C8      -H13     :   5.447408
 N3      -Pd2     -P1      -C27     :   0.000000
 N3      -Pd2     -P1      -C28     : 122.206107
 N3      -Pd2     -P1      -C29     :-117.700249
 N3      -Pd2     -C7      -C6      :  91.593634
 N3      -Pd2     -C7      -C8      : -91.899915
 N3      -C19     -C18     -C17     : 180.000000
 N3      -C19     -C18     -H24     :   0.000001
 N3      -C19     -C20     -C21     : 180.000000
 N3      -C19     -C20     -H25     :   0.000001
 C4      -C5      -C6      -C7      :   0.715588
 C4      -C5      -C6      -H12     :-178.517609
 C4      -C9      -C8      -C7      :  -0.434505
 C4      -C9      -C8      -H13     : 178.620373
 C5      -C4      -C9      -C8      :  -0.193424
 C5      -C4      -C9      -H14     : 179.449184
 C5      -C6      -C7      -C8      :  -1.292430
 C6      -C5      -C4      -C9      :   0.055695
 C6      -C5      -C4      -F10     :-179.100613
 C6      -C7      -C8      -C9      :   1.154437
 C6      -C7      -C8      -H13     :-177.889434
 C7      -Pd2     -P1      -C27     :   1.218729
 C7      -Pd2     -P1      -C28     : 123.424837
 C7      -Pd2     -P1      -C29     :-116.481519
 C7      -Pd2     -N3      -H15     : -97.202263
 C7      -Pd2     -N3      -C19     :  29.147667
 C7      -C6      -C5      -H11     :-179.944664
 C7      -C8      -C9      -H14     : 179.924240
 C8      -C7      -C6      -H12     : 177.931702
 C8      -C9      -C4      -F10     : 178.966622
 C9      -C4      -C5      -H11     :-179.285990
 F10     -C4      -C5      -H11     :   1.557702
 F10     -C4      -C9      -H14     :  -1.390769
 H11     -C5      -C6      -H12     :   0.822139
 H13     -C8      -C9      -H14     :  -1.020882
 H15     -N3      -C19     -C18     :-142.012991
 H15     -N3      -C19     -C20     :  37.987009
 C16     -C17     -C18     -C19     :   0.000000
 C16     -C17     -C18     -H24     : 179.999999
 C16     -C21     -C20     -C19     :   0.000000
 C16     -C21     -C20     -H25     : 180.000000
 C17     -C16     -C21     -C20     :   0.000000
 C17     -C16     -C21     -H26     : 180.000000
 C17     -C18     -C19     -C20     :   0.000000
 C18     -C17     -C16     -C21     :   0.000000
 C18     -C17     -C16     -H22     : 180.000000
 C18     -C19     -C20     -C21     :   0.000000
 C18     -C19     -C20     -H25     :-179.999999
 C19     -C18     -C17     -H23     : 180.000000
 C19     -C20     -C21     -H26     :-179.999999
 C20     -C19     -C18     -H24     :-179.999999
 C20     -C21     -C16     -H22     : 180.000000
 C21     -C16     -C17     -H23     : 179.999999
 H22     -C16     -C17     -H23     :   0.000000
 H22     -C16     -C21     -H26     :   0.000000
 H23     -C17     -C18     -H24     :  -0.000001
 H25     -C20     -C21     -H26     :   0.000000
 C27     -P1      -C28     -C32     :  96.372645
 C27     -P1      -C28     -C33     :-145.649592
 C27     -P1      -C28     -C89     : -23.043043
 C27     -P1      -C29     -C34     :  60.299866
 C27     -P1      -C29     -C38     :-114.536731
 C28     -P1      -C27     -C30     :  58.660020
 C28     -P1      -C27     -C31     : -64.344660
 C28     -P1      -C27     -C93     : 177.473990
 C28     -P1      -C29     -C34     : -51.464389
 C28     -P1      -C29     -C38     : 133.699014
 C29     -P1      -C27     -C30     : -51.406213
 C29     -P1      -C27     -C31     :-174.410894
 C29     -P1      -C27     -C93     :  67.407756
 C29     -P1      -C28     -C32     :-156.900754
 C29     -P1      -C28     -C33     : -38.922990
 C29     -P1      -C28     -C89     :  83.683559
 C29     -C34     -C35     -C36     :   0.953559
 C29     -C34     -C35     -H63     :-179.937772
 C29     -C38     -C37     -C36     :   4.722829
 C29     -C38     -C37     -H65     :-177.825264
 C29     -C38     -C39     -C40     : -93.715753
 C29     -C38     -C39     -C44     :  95.390191
 C30     -C27     -C31     -H56     : 178.723324
 C30     -C27     -C31     -H57     : -57.956081
 C30     -C27     -C31     -H98     :  60.250793
 C30     -C27     -C93     -H94     : -58.856036
 C30     -C27     -C93     -H95     :  58.638818
 C30     -C27     -C93     -H96     :-178.062748
 C31     -C27     -C30     -H54     :  63.114911
 C31     -C27     -C30     -H55     :-172.039486
 C31     -C27     -C30     -H97     : -55.152100
 C31     -C27     -C93     -H94     :  57.903115
 C31     -C27     -C93     -H95     : 175.397970
 C31     -C27     -C93     -H96     : -61.303596
 C32     -C28     -C33     -H60     :  63.088416
 C32     -C28     -C33     -H61     :-174.380539
 C32     -C28     -C33     -H100    : -55.705669
 C32     -C28     -C89     -H90     :  59.582873
 C32     -C28     -C89     -H91     : 177.008524
 C32     -C28     -C89     -H92     : -58.198041
 C33     -C28     -C32     -H58     :-179.126282
 C33     -C28     -C32     -H59     : -57.608007
 C33     -C28     -C32     -H99     :  61.945956
 C33     -C28     -C89     -H90     : -58.270103
 C33     -C28     -C89     -H91     :  59.155548
 C33     -C28     -C89     -H92     :-176.051017
 C34     -C29     -C38     -C37     :  -7.708039
 C34     -C29     -C38     -C39     : 164.732353
 C34     -C35     -C36     -C37     :  -4.274707
 C34     -C35     -C36     -H64     : 177.894943
 C35     -C34     -C29     -C38     :   5.187907
 C35     -C36     -C37     -C38     :   1.431251
 C35     -C36     -C37     -H65     :-175.969829
 C36     -C35     -C34     -H62     :-178.818884
 C36     -C37     -C38     -C39     :-168.847479
 C37     -C36     -C35     -H63     : 176.628706
 C37     -C38     -C39     -C40     :  78.978297
 C37     -C38     -C39     -C44     : -91.915759
 C38     -C29     -C34     -H62     :-175.041697
 C38     -C37     -C36     -H64     : 179.281292
 C38     -C39     -C40     -C41     :-175.914414
 C38     -C39     -C40     -C47     :   0.939794
 C38     -C39     -C44     -C43     : 176.192814
 C38     -C39     -C44     -C45     :   1.014125
 C39     -C38     -C37     -H65     :   8.604428
 C39     -C40     -C41     -C42     :   0.183632
 C39     -C40     -C41     -H66     :-177.685208
 C39     -C40     -C47     -C48     : 139.952085
 C39     -C40     -C47     -C51     : -96.603289
 C39     -C40     -C47     -H72     :  21.010825
 C39     -C44     -C43     -C42     :  -1.707070
 C39     -C44     -C43     -H67     : 176.807429
 C39     -C44     -C45     -C46     :  88.760506
 C39     -C44     -C45     -C50     :-147.067892
 C39     -C44     -C45     -H68     : -27.923640
 C40     -C39     -C44     -C43     :   5.462025
 C40     -C39     -C44     -C45     :-169.716664
 C40     -C41     -C42     -C43     :   3.524270
 C40     -C41     -C42     -C49     :-174.807659
 C40     -C47     -C48     -H73     :  69.540809
 C40     -C47     -C48     -H74     :-171.905979
 C40     -C47     -C48     -H75     : -51.484648
 C40     -C47     -C51     -H80     : -60.781100
 C40     -C47     -C51     -H81     : 179.967050
 C40     -C47     -C51     -H82     :  59.410583
 C41     -C40     -C39     -C44     :  -4.731826
 C41     -C40     -C47     -C48     : -43.180339
 C41     -C40     -C47     -C51     :  80.264287
 C41     -C40     -C47     -H72     :-162.121598
 C41     -C42     -C43     -C44     :  -2.756369
 C41     -C42     -C43     -H67     : 178.722196
 C41     -C42     -C49     -C52     :  65.622100
 C41     -C42     -C49     -C53     : -59.729306
 C41     -C42     -C49     -H76     :-177.558553
 C42     -C41     -C40     -C47     :-176.797561
 C42     -C43     -C44     -C45     : 173.594331
 C42     -C49     -C52     -H83     : -66.423954
 C42     -C49     -C52     -H84     : 173.906791
 C42     -C49     -C52     -H85     :  52.606652
 C42     -C49     -C53     -H86     :  62.826165
 C42     -C49     -C53     -H87     : -57.313194
 C42     -C49     -C53     -H88     :-177.812649
 C43     -C42     -C41     -H66     :-178.618321
 C43     -C42     -C49     -C52     :-112.661377
 C43     -C42     -C49     -C53     : 121.987217
 C43     -C42     -C49     -H76     :   4.157970
 C43     -C44     -C45     -C46     : -86.407446
 C43     -C44     -C45     -C50     :  37.764157
 C43     -C44     -C45     -H68     : 156.908408
 C44     -C39     -C40     -C47     : 172.122382
 C44     -C43     -C42     -C49     : 175.595014
 C44     -C45     -C46     -H69     :  61.208828
 C44     -C45     -C46     -H70     : -59.019453
 C44     -C45     -C46     -H71     :-179.402937
 C44     -C45     -C50     -H77     : -68.972886
 C44     -C45     -C50     -H78     : 172.673467
 C44     -C45     -C50     -H79     :  53.083269
 C45     -C44     -C43     -H67     :  -7.891170
 C46     -C45     -C50     -H77     :  55.374850
 C46     -C45     -C50     -H78     : -62.978797
 C46     -C45     -C50     -H79     : 177.431004
 C47     -C40     -C41     -H66     :   5.333599
 C48     -C47     -C51     -H80     :  65.533300
 C48     -C47     -C51     -H81     : -53.718550
 C48     -C47     -C51     -H82     :-174.275017
 C49     -C42     -C41     -H66     :   3.049750
 C49     -C42     -C43     -H67     :  -2.926422
 C50     -C45     -C46     -H69     : -65.429060
 C50     -C45     -C46     -H70     : 174.342659
 C50     -C45     -C46     -H71     :  53.959175
 C51     -C47     -C48     -H73     : -54.688409
 C51     -C47     -C48     -H74     :  63.864803
 C51     -C47     -C48     -H75     :-175.713866
 C52     -C49     -C53     -H86     : -62.101764
 C52     -C49     -C53     -H87     : 177.758876
 C52     -C49     -C53     -H88     :  57.259421
 C53     -C49     -C52     -H83     :  59.512729
 C53     -C49     -C52     -H84     : -60.156527
 C53     -C49     -C52     -H85     : 178.543335
 H54     -C30     -C27     -C93     :-178.908522
 H55     -C30     -C27     -C93     : -54.062920
 H56     -C31     -C27     -C93     :  63.756901
 H57     -C31     -C27     -C93     :-172.922504
 H58     -C32     -C28     -C89     :  64.593465
 H59     -C32     -C28     -C89     :-173.888260
 H60     -C33     -C28     -C89     : 179.172054
 H61     -C33     -C28     -C89     : -58.296901
 H62     -C34     -C35     -H63     :   0.289786
 H63     -C35     -C36     -H64     :  -1.201644
 H64     -C36     -C37     -H65     :   1.880213
 H68     -C45     -C46     -H69     : 177.852204
 H68     -C45     -C46     -H70     :  57.623923
 H68     -C45     -C46     -H71     : -62.759561
 H68     -C45     -C50     -H77     : 172.002201
 H68     -C45     -C50     -H78     :  53.648554
 H68     -C45     -C50     -H79     : -65.941644
 H72     -C47     -C48     -H73     :-171.097361
 H72     -C47     -C48     -H74     : -52.544149
 H72     -C47     -C48     -H75     :  67.877182
 H72     -C47     -C51     -H80     :-178.462614
 H72     -C47     -C51     -H81     :  62.285537
 H72     -C47     -C51     -H82     : -58.270930
 H76     -C49     -C52     -H83     : 177.129053
 H76     -C49     -C52     -H84     :  57.459798
 H76     -C49     -C52     -H85     : -63.840341
 H76     -C49     -C53     -H86     :-179.709569
 H76     -C49     -C53     -H87     :  60.151072
 H76     -C49     -C53     -H88     : -60.348383
 C89     -C28     -C32     -H99     : -54.334297
 C89     -C28     -C33     -H100    :  60.377970
 C93     -C27     -C30     -H97     :  62.824467
 C93     -C27     -C31     -H98     : -54.715630
 
  nuclear repulsion energy.......    6767.144145163 hartrees
  
  Detected an organometallic with only one TM atom. 
  
  Oxidation state on metal       2 is     2
  Formal multiplet on metal      2 is     1
  Formal charge on ligand        3 is    -1
  Formal multiplet on ligand     3 is     1
  Formal charge on ligand        4 is    -1
  Formal multiplet on ligand     4 is     1
  
 
  Will use High-Quality Initial guess for organometallics
       including d-d repulsion (iguess=30)
 
 Non-default options chosen:
   SCF calculation type: DFT(b3pw91-d3)              
   DFT=Becke_3_Parameter/HF+Slater+Becke88+PW91+PW-GGAIIC (B3PW91-D3)
   Geometry will be optimized in redundant internal coordinates
   Solvation energy will be computed using PBF
     -solute cavity energy will not be included
     -surface area terms will not be included
   Vibrational frequencies and related properties will be computed
      from analytic second derivatives
   IR intensities will be computed
   Thermochemical properties will be computed
   Scaling standard convergence criteria by a factor of   5.00
   Solvent: benzene                                                         
   Internal dielectric constant:    1.000
   Continuum dielectric constant:   2.283
   Solvent probe molecule radius:   2.600
  
 Non-default print settings:
     11=  2
  
 Temporary integer options set:
     21= -1  73=  2
  
  atom       vdw   vdw2    cov     mass  grid  daf  charge   basis
  P1        2.147  2.074  1.060   30.974    Y    Y      Y    6-31g*
  Pd2       1.450  1.450  1.280  105.903    Y    Y      Y    lacv3p*
  N3        1.831  1.600  0.750   14.003    Y    Y      Y    6-31g*
  C4        1.949  1.900  0.770   12.000    Y    Y      Y    6-31g*
  C5        1.949  1.900  0.770   12.000    Y    Y      Y    6-31g*
  C6        1.949  1.900  0.770   12.000    Y    Y      Y    6-31g*
  C7        1.949  1.900  0.770   12.000    Y    Y      Y    6-31g*
  C8        1.949  1.900  0.770   12.000    Y    Y      Y    6-31g*
  C9        1.949  1.900  0.770   12.000    Y    Y      Y    6-31g*
  F10       1.736  1.682  0.720   18.998    Y    Y      Y    6-31g*
  H11       1.597  1.150  0.320    1.008    Y    Y      Y    6-31g*
  H12       1.597  1.150  0.320    1.008    Y    Y      Y    6-31g*
  H13       1.597  1.150  0.320    1.008    Y    Y      Y    6-31g*
  H14       1.597  1.150  0.320    1.008    Y    Y      Y    6-31g*
  H15       1.597  1.150  0.320    1.008    Y    Y      Y    6-31g*
  C16       1.949  1.900  0.770   12.000    Y    Y      Y    6-31g*
  C17       1.949  1.900  0.770   12.000    Y    Y      Y    6-31g*
  C18       1.949  1.900  0.770   12.000    Y    Y      Y    6-31g*
  C19       1.949  1.900  0.770   12.000    Y    Y      Y    6-31g*
  C20       1.949  1.900  0.770   12.000    Y    Y      Y    6-31g*
  C21       1.949  1.900  0.770   12.000    Y    Y      Y    6-31g*
  H22       1.597  1.150  0.320    1.008    Y    Y      Y    6-31g*
  H23       1.597  1.150  0.320    1.008    Y    Y      Y    6-31g*
  H24       1.597  1.150  0.320    1.008    Y    Y      Y    6-31g*
  H25       1.597  1.150  0.320    1.008    Y    Y      Y    6-31g*
  H26       1.597  1.150  0.320    1.008    Y    Y      Y    6-31g*
  C27       1.949  1.900  0.770   12.000    Y    Y      Y    6-31g*
  C28       1.949  1.900  0.770   12.000    Y    Y      Y    6-31g*
  C29       1.949  1.900  0.770   12.000    Y    Y      Y    6-31g*
  C30       1.949  1.900  0.770   12.000    Y    Y      Y    6-31g*
  C31       1.949  1.900  0.770   12.000    Y    Y      Y    6-31g*
  C32       1.949  1.900  0.770   12.000    Y    Y      Y    6-31g*
  C33       1.949  1.900  0.770   12.000    Y    Y      Y    6-31g*
  C34       1.949  1.900  0.770   12.000    Y    Y      Y    6-31g*
  C35       1.949  1.900  0.770   12.000    Y    Y      Y    6-31g*
  C36       1.949  1.900  0.770   12.000    Y    Y      Y    6-31g*
  C37       1.949  1.900  0.770   12.000    Y    Y      Y    6-31g*
  C38       1.949  1.900  0.770   12.000    Y    Y      Y    6-31g*
  C39       1.949  1.900  0.770   12.000    Y    Y      Y    6-31g*
  C40       1.949  1.900  0.770   12.000    Y    Y      Y    6-31g*
  C41       1.949  1.900  0.770   12.000    Y    Y      Y    6-31g*
  C42       1.949  1.900  0.770   12.000    Y    Y      Y    6-31g*
  C43       1.949  1.900  0.770   12.000    Y    Y      Y    6-31g*
  C44       1.949  1.900  0.770   12.000    Y    Y      Y    6-31g*
  C45       1.949  1.900  0.770   12.000    Y    Y      Y    6-31g*
  C46       1.949  1.900  0.770   12.000    Y    Y      Y    6-31g*
  C47       1.949  1.900  0.770   12.000    Y    Y      Y    6-31g*
  C48       1.949  1.900  0.770   12.000    Y    Y      Y    6-31g*
  C49       1.949  1.900  0.770   12.000    Y    Y      Y    6-31g*
  C50       1.949  1.900  0.770   12.000    Y    Y      Y    6-31g*
  C51       1.949  1.900  0.770   12.000    Y    Y      Y    6-31g*
  C52       1.949  1.900  0.770   12.000    Y    Y      Y    6-31g*
  C53       1.949  1.900  0.770   12.000    Y    Y      Y    6-31g*
  H54       1.597  1.150  0.320    1.008    Y    Y      Y    6-31g*
  H55       1.597  1.150  0.320    1.008    Y    Y      Y    6-31g*
  H56       1.597  1.150  0.320    1.008    Y    Y      Y    6-31g*
  H57       1.597  1.150  0.320    1.008    Y    Y      Y    6-31g*
  H58       1.597  1.150  0.320    1.008    Y    Y      Y    6-31g*
  H59       1.597  1.150  0.320    1.008    Y    Y      Y    6-31g*
  H60       1.597  1.150  0.320    1.008    Y    Y      Y    6-31g*
  H61       1.597  1.150  0.320    1.008    Y    Y      Y    6-31g*
  H62       1.597  1.150  0.320    1.008    Y    Y      Y    6-31g*
  H63       1.597  1.150  0.320    1.008    Y    Y      Y    6-31g*
  H64       1.597  1.150  0.320    1.008    Y    Y      Y    6-31g*
  H65       1.597  1.150  0.320    1.008    Y    Y      Y    6-31g*
  H66       1.597  1.150  0.320    1.008    Y    Y      Y    6-31g*
  H67       1.597  1.150  0.320    1.008    Y    Y      Y    6-31g*
  H68       1.597  1.150  0.320    1.008    Y    Y      Y    6-31g*
  H69       1.597  1.150  0.320    1.008    Y    Y      Y    6-31g*
  H70       1.597  1.150  0.320    1.008    Y    Y      Y    6-31g*
  H71       1.597  1.150  0.320    1.008    Y    Y      Y    6-31g*
  H72       1.597  1.150  0.320    1.008    Y    Y      Y    6-31g*
  H73       1.597  1.150  0.320    1.008    Y    Y      Y    6-31g*
  H74       1.597  1.150  0.320    1.008    Y    Y      Y    6-31g*
  H75       1.597  1.150  0.320    1.008    Y    Y      Y    6-31g*
  H76       1.597  1.150  0.320    1.008    Y    Y      Y    6-31g*
  H77       1.597  1.150  0.320    1.008    Y    Y      Y    6-31g*
  H78       1.597  1.150  0.320    1.008    Y    Y      Y    6-31g*
  H79       1.597  1.150  0.320    1.008    Y    Y      Y    6-31g*
  H80       1.597  1.150  0.320    1.008    Y    Y      Y    6-31g*
  H81       1.597  1.150  0.320    1.008    Y    Y      Y    6-31g*
  H82       1.597  1.150  0.320    1.008    Y    Y      Y    6-31g*
  H83       1.597  1.150  0.320    1.008    Y    Y      Y    6-31g*
  H84       1.597  1.150  0.320    1.008    Y    Y      Y    6-31g*
  H85       1.597  1.150  0.320    1.008    Y    Y      Y    6-31g*
  H86       1.597  1.150  0.320    1.008    Y    Y      Y    6-31g*
  H87       1.597  1.150  0.320    1.008    Y    Y      Y    6-31g*
  H88       1.597  1.150  0.320    1.008    Y    Y      Y    6-31g*
  C89       1.949  1.900  0.770   12.000    Y    Y      Y    6-31g*
  H90       1.597  1.150  0.320    1.008    Y    Y      Y    6-31g*
  H91       1.597  1.150  0.320    1.008    Y    Y      Y    6-31g*
  H92       1.597  1.150  0.320    1.008    Y    Y      Y    6-31g*
  C93       1.949  1.900  0.770   12.000    Y    Y      Y    6-31g*
  H94       1.597  1.150  0.320    1.008    Y    Y      Y    6-31g*
  H95       1.597  1.150  0.320    1.008    Y    Y      Y    6-31g*
  H96       1.597  1.150  0.320    1.008    Y    Y      Y    6-31g*
  H97       1.597  1.150  0.320    1.008    Y    Y      Y    6-31g*
  H98       1.597  1.150  0.320    1.008    Y    Y      Y    6-31g*
  H99       1.597  1.150  0.320    1.008    Y    Y      Y    6-31g*
  H100      1.597  1.150  0.320    1.008    Y    Y      Y    6-31g*
 
  atom      formal  2spin      esp    mulk    frag
  P1           0       0        Y    0.000       0
  Pd2          2       0        Y    0.000       0
  N3          -1       0        Y    0.000       0
  C4          -1       0        Y    0.000       0
  
  end of program pre
   
 Time(pre)  user:        2.0  user+sys:        2.0  wallclock:        2.2
  
  start of program onee
  
  smallest eigenvalue of S:    3.247E-04
  number of canonical orbitals.....          758
  end of program onee
   
 Time(onee)  user:        2.4  user+sys:        2.4  wallclock:        2.5
  
  start of program hfig
  
  initial wavefunction generated automatically from atomic wavefunctions
  Only one state below 0.010000
  Skip d-d repulsion considerations 
 
  Irreducible     Total no   No of occupied orbitals 
  representation  orbitals   Shell_1  Shell_2    ...
  No Symm          758        175
  ------------------------
  Orbital occupation/shell    1.000
 
  end of program hfig
   
 Time(hfig)  user:        0.8  user+sys:        0.8  wallclock:        0.9
  
  start of program probe
  
  end of program probe
   
 Time(probe)  user:        0.5  user+sys:        0.5  wallclock:        0.5
  
  start of program grid
  
   grid     grid set  grid #  grid sym
  ------    --------  ------  --------
  coarse        0        0        1
  medium        2        1        1
  fine          0        0        1
  ultrafine     4        2        1
  charge       -1        3        1
  gradient      4        2        1
  density       0        0        1
  DFT-fine    -11        4        1
  DFT-med.    -10        5        1
  DFT-grad    -12        6        1
  DFT-der2     -8        7        1
  DFT-cphf     -9        8        1
  LMP2-enrg     4        2        1
  LMP2-grad     2        1        1
  DFT-cphf2   -15        9        1
  PBF-dens      0        0        1
  plotting      0        0        1
  Rel-grad    -17        0        1
  
  number of gridpoints: 
     atom        P1      Pd2       N3       C4       C5       C6       C7
  grid # 1      621      359      105       79       93       95      100
  grid # 2      443      318      380      326      321      321      395
  grid # 3        9      269        6       26       12        7       17
  grid # 4     8714     8714     8714     8714     8714     8714     8714
  grid # 5     1192     1192     1192     1192     1192     1192     1192
  grid # 6     9132     9132     5922     5922     5922     5922     5922
  grid # 7    23034    32968    13958    13950    13950    13950    13950
  grid # 8      722     1150      756      748      748      748      748
  grid # 9      366     2198      406      394      394      394      394
   
  number of gridpoints: 
     atom        C8       C9      F10      H11      H12      H13      H14
  grid # 1       96       94      584      112      104      115      115
  grid # 2      326      324      563      453      421      455      465
  grid # 3       24       28      343      288       53      254      387
  grid # 4     8714     8714     8714     8714     8714     8714     8714
  grid # 5     1192     1192     1192     1192     1192     1192     1192
  grid # 6     5922     5922     5922     5922     5922     5922     5922
  grid # 7    13950    13950    23190    15206    15206    15206    15206
  grid # 8      748      748      770      786      786      786      786
  grid # 9      394      394      420      420      420      420      420
   
  number of gridpoints: 
     atom       H15      C16      C17      C18      C19      C20      C21
  grid # 1       92       96       96       96      100       96       96
  grid # 2      389      323      323      321      353      322      323
  grid # 3       55       38       36       28       30       31       34
  grid # 4     8714     8714     8714     8714     8714     8714     8714
  grid # 5     1192     1192     1192     1192     1192     1192     1192
  grid # 6     5922     5922     5922     5922     5922     5922     5922
  grid # 7    15206    13950    13950    13950    13950    13950    13950
  grid # 8      786      748      748      748      748      748      748
  grid # 9      420      394      394      394      394      394      394
   
  number of gridpoints: 
     atom       H22      H23      H24      H25      H26      C27      C28
  grid # 1      117      117      107      110      117       87       90
  grid # 2      466      466      445      438      465      372      371
  grid # 3      405      409      199      158      380        6        6
  grid # 4     8714     8714     8714     8714     8714     8714     8714
  grid # 5     1192     1192     1192     1192     1192     1192     1192
  grid # 6     5922     5922     5922     5922     5922     5922     5922
  grid # 7    15206    15206    15206    15206    15206    13950    13950
  grid # 8      786      786      786      786      786      748      748
  grid # 9      420      420      420      420      420      394      394
   
  number of gridpoints: 
     atom       C29      C30      C31      C32      C33      C34      C35
  grid # 1       92       81       81       80       81       93       95
  grid # 2      388      237      241      238      240      323      324
  grid # 3        8        6        6        6        6       11       27
  grid # 4     8714     8714     8714     8714     8714     8714     8714
  grid # 5     1192     1192     1192     1192     1192     1192     1192
  grid # 6     5922     5922     5922     5922     5922     5922     5922
  grid # 7    13950    13950    13950    13950    13950    13950    13950
  grid # 8      748      748      748      748      748      748      748
  grid # 9      394      394      394      394      394      394      394
   
  number of gridpoints: 
     atom       C36      C37      C38      C39      C40      C41      C42
  grid # 1       96       94      100       99       98       95      100
  grid # 2      322      324      353      359      362      329      362
  grid # 3       31       13        8        7       12       22       16
  grid # 4     8714     8714     8714     8714     8714     8714     8714
  grid # 5     1192     1192     1192     1192     1192     1192     1192
  grid # 6     5922     5922     5922     5922     5922     5922     5922
  grid # 7    13950    13950    13950    13950    13950    13950    13950
  grid # 8      748      748      748      748      748      748      748
  grid # 9      394      394      394      394      394      394      394
   
  number of gridpoints: 
     atom       C43      C44      C45      C46      C47      C48      C49
  grid # 1       95       98       92       81       91       81       90
  grid # 2      326      360      309      241      306      239      305
  grid # 3       17       12        6        6        6        6        6
  grid # 4     8714     8714     8714     8714     8714     8714     8714
  grid # 5     1192     1192     1192     1192     1192     1192     1192
  grid # 6     5922     5922     5922     5922     5922     5922     5922
  grid # 7    13950    13950    13950    13950    13950    13950    13950
  grid # 8      748      748      748      748      748      748      748
  grid # 9      394      394      394      394      394      394      394
   
  number of gridpoints: 
     atom       C50      C51      C52      C53      H54      H55      H56
  grid # 1       81       82       82       79      100      104       94
  grid # 2      245      239      239      247      421      428      406
  grid # 3        6        6        6        6      150      179       47
  grid # 4     8714     8714     8714     8714     8714     8714     8714
  grid # 5     1192     1192     1192     1192     1192     1192     1192
  grid # 6     5922     5922     5922     5922     5922     5922     5922
  grid # 7    13950    13950    13950    13950    15206    15206    15206
  grid # 8      748      748      748      748      786      786      786
  grid # 9      394      394      394      394      420      420      420
   
  number of gridpoints: 
     atom       H57      H58      H59      H60      H61      H62      H63
  grid # 1      101      104      105      104      105      101      117
  grid # 2      425      436      444      438      437      415      469
  grid # 3      151      144      172      121      177       66      406
  grid # 4     8714     8714     8714     8714     8714     8714     8714
  grid # 5     1192     1192     1192     1192     1192     1192     1192
  grid # 6     5922     5922     5922     5922     5922     5922     5922
  grid # 7    15206    15206    15206    15206    15206    15206    15206
  grid # 8      786      786      786      786      786      786      786
  grid # 9      420      420      420      420      420      420      420
   
  number of gridpoints: 
     atom       H64      H65      H66      H67      H68      H69      H70
  grid # 1      117      107      104      103      100      110      106
  grid # 2      468      436      428      425      414      453      441
  grid # 3      411      146       87      110       36      288      191
  grid # 4     8714     8714     8714     8714     8714     8714     8714
  grid # 5     1192     1192     1192     1192     1192     1192     1192
  grid # 6     5922     5922     5922     5922     5922     5922     5922
  grid # 7    15206    15206    15206    15206    15206    15206    15206
  grid # 8      786      786      786      786      786      786      786
  grid # 9      420      420      420      420      420      420      420
   
  number of gridpoints: 
     atom       H71      H72      H73      H74      H75      H76      H77
  grid # 1      110      105      106      108      109      109      105
  grid # 2      451      427      442      450      448      440      439
  grid # 3      309      107      230      307      235      184      230
  grid # 4     8714     8714     8714     8714     8714     8714     8714
  grid # 5     1192     1192     1192     1192     1192     1192     1192
  grid # 6     5922     5922     5922     5922     5922     5922     5922
  grid # 7    15206    15206    15206    15206    15206    15206    15206
  grid # 8      786      786      786      786      786      786      786
  grid # 9      420      420      420      420      420      420      420
   
  number of gridpoints: 
     atom       H78      H79      H80      H81      H82      H83      H84
  grid # 1      109       99      108      110      107      107      109
  grid # 2      447      411      451      452      439      448      454
  grid # 3      262       30      265      319      188      253      304
  grid # 4     8714     8714     8714     8714     8714     8714     8714
  grid # 5     1192     1192     1192     1192     1192     1192     1192
  grid # 6     5922     5922     5922     5922     5922     5922     5922
  grid # 7    15206    15206    15206    15206    15206    15206    15206
  grid # 8      786      786      786      786      786      786      786
  grid # 9      420      420      420      420      420      420      420
   
  number of gridpoints: 
     atom       H85      H86      H87      H88      C89      H90      H91
  grid # 1      104      108      111      109       82      108       99
  grid # 2      431      446      460      457      239      445      425
  grid # 3      128      243      347      325        6      257      167
  grid # 4     8714     8714     8714     8714     8714     8714     8714
  grid # 5     1192     1192     1192     1192     1192     1192     1192
  grid # 6     5922     5922     5922     5922     5922     5922     5922
  grid # 7    15206    15206    15206    15206    13950    15206    15206
  grid # 8      786      786      786      786      748      786      786
  grid # 9      420      420      420      420      394      420      420
   
  number of gridpoints: 
     atom       H92      C93      H94      H95      H96      H97      H98
  grid # 1      100       79      108      103       91      109      108
  grid # 2      425      241      446      424      388      445      447
  grid # 3      152        6      260      143       47      257      267
  grid # 4     8714     8714     8714     8714     8714     8714     8714
  grid # 5     1192     1192     1192     1192     1192     1192     1192
  grid # 6     5922     5922     5922     5922     5922     5922     5922
  grid # 7    15206    13950    15206    15206    15206    15206    15206
  grid # 8      786      748      786      786      786      786      786
  grid # 9      420      394      420      420      420      420      420
   
  number of gridpoints: 
     atom       H99     H100    total
  grid # 1      109      108    11245
  grid # 2      447      447    38542
  grid # 3      270      268    13048
  grid # 4     8714     8714   871400
  grid # 5     1192     1192   119200
  grid # 6     5922     5922   598620
  grid # 7    15206    15206  1501430
  grid # 8      786      786    77296
  grid # 9      420      420    42644
   
  end of program grid
   
 Time(grid)  user:      388.9  user+sys:      388.9  wallclock:      389.6
  
  start of program rwr
  
  end of program rwr
   
 Time(rwr)  user:       12.3  user+sys:       12.3  wallclock:       13.9
  
  start of program scf
  
 number of electrons..........        350
 number of alpha electrons....        175
 number of beta electrons.....        175
 number of orbitals, total....        758
 number of doubly-occ'd orbs..        175
 number of open shell orbs....          0
 number of occupied orbitals..        175
 number of virtual orbitals...        583
 number of hamiltonians.......          1
 number of shells.............          1
 SCF type: DFT=Becke_3_Parameter/HF+Slater+Becke88+PW91+PW-GGAIIC (B3PW91-D3)
 Energy computed with NOPS off.
 Convergence Criterion:
    Energy (econv):       1.00E-05
    RMS density (dconv):  5.00E-06
  
       i  u  d  i  g                   
       t  p  i  c  r                                 RMS    maximum
       e  d  i  u  i                       energy  density   DIIS  
       r  t  s  t  d       total energy    change  change    error 
  
etot    1  N  N  5  M   -2211.97612893977           1.8E-03  2.0E-01
etot    2  Y  Y  6  M   -2215.82222577397  3.8E+00  2.6E-03  1.2E-01
etot    3  Y  Y  6  M   -2217.00051341910  1.2E+00  1.2E-03  6.5E-02
etot    4  N  Y  2  U   -2217.31452663985  3.1E-01  7.3E-04  3.8E-02
etot    5  Y  Y  6  M   -2217.41384781422  9.9E-02  4.5E-04  2.2E-02
etot    6  N  Y  2  U   -2217.42446088043  1.1E-02  4.0E-04  1.1E-02
etot    7  Y  Y  6  M   -2217.42525259536  7.9E-04  1.0E-04  4.7E-03
etot    8  Y  Y  6  M   -2217.43164076532  6.4E-03  3.1E-05  2.3E-03
etot    9  N  Y  2  U   -2217.43292191366  1.3E-03  1.3E-05  2.4E-04
etot   10  N  Y  2  U   -2217.43292791212  6.0E-06  6.6E-06  1.1E-04
etot   11  N  Y  2  U   -2217.43293115381  3.2E-06  2.3E-06  2.9E-05
etot   12  N  N  2  U   -2217.43293165582  5.0E-07  0.0E+00  0.0E+00
 
  Computing the dispersion energy correction and its gradients...
  
  
 Energy components, in hartrees:
   (A)  Nuclear repulsion............    6767.14414516277
   (E)  Total one-electron terms.....  -16554.15113807961
   (F)    Electron-nuclear...........  -18677.32628642237
   (H)    Kinetic....................    2123.17514834275
   (I)  Total two-electron terms.....    7569.57406126103
   (J)    Coulomb....................    7865.23013175944
   (K)    Exchange+Correlation.......    -295.65607049841
   (L)  Electronic energy............   -8984.57707681858  (E+I)
   (N0) D3 correction................      -0.18753459873
   (N)  Total energy.................   -2217.62046625454  (A+L+N0)
   (O)  Gas phase energy.............   -2217.62046625454
  
 SCFE: SCF energy: DFT(b3pw91-d3)     -2217.62046625454 hartrees   iterations:  12
  
 
 HOMO energy:    -0.18143
 LUMO energy:    -0.07713
 
  Orbital energies (hartrees): 
   -77.07423   -24.67533   -14.30707   -10.23383   -10.21151   -10.20573
   -10.20570   -10.20303   -10.18979   -10.18971   -10.18809   -10.18730
   -10.18635   -10.18547   -10.18255   -10.18137   -10.17861   -10.17748
   -10.17476   -10.17444   -10.17291   -10.16932   -10.16804   -10.16361
   -10.16349   -10.16252   -10.16138   -10.15872   -10.15872   -10.15850
   -10.15753   -10.15743   -10.15714   -10.15702   -10.15645   -10.15539
   -10.15449   -10.15429   -10.15312   -10.15295   -10.15031   -10.14718
   -10.14591   -10.14376    -6.57333    -4.73161    -4.73098    -4.72761
    -3.33007    -2.06438    -2.05907    -2.02947    -1.21188    -0.87641
    -0.86379    -0.85644    -0.83287    -0.82663    -0.81261    -0.81091
    -0.80956    -0.80222    -0.77678    -0.76487    -0.75987    -0.72999
    -0.72751    -0.72066    -0.71658    -0.71411    -0.70296    -0.69696
    -0.69548    -0.68383    -0.68247    -0.68216    -0.68147    -0.67433
    -0.65185    -0.62905    -0.62402    -0.60610    -0.59568    -0.59394
    -0.58898    -0.58553    -0.58208    -0.57078    -0.55244    -0.54859
    -0.53677    -0.53114    -0.52433    -0.51313    -0.50083    -0.48805
    -0.48198    -0.47057    -0.46859    -0.46538    -0.46335    -0.46115
    -0.45561    -0.45095    -0.44710    -0.44654    -0.44511    -0.44433
    -0.44058    -0.43909    -0.43549    -0.43337    -0.42945    -0.42579
    -0.42265    -0.41958    -0.41880    -0.41324    -0.40921    -0.40766
    -0.40308    -0.40158    -0.39897    -0.39804    -0.39724    -0.39551
    -0.38892    -0.38699    -0.38333    -0.38243    -0.38126    -0.37779
    -0.37629    -0.37579    -0.37499    -0.37142    -0.36720    -0.36443
    -0.36175    -0.35618    -0.35083    -0.34978    -0.34784    -0.34353
    -0.34172    -0.33894    -0.33754    -0.33510    -0.33397    -0.33327
    -0.33070    -0.32922    -0.32363    -0.32283    -0.32114    -0.31877
    -0.31502    -0.31208    -0.30879    -0.30407    -0.30198    -0.28833
    -0.26050    -0.25776    -0.25622    -0.25302    -0.24497    -0.24111
    -0.23612    -0.23388    -0.23211    -0.22948    -0.20918    -0.20536
    -0.18143    -0.07713    -0.03841    -0.02254    -0.00578    -0.00167
     0.00731     0.01284     0.01919     0.02297     0.03163
 
  end of program scf
   
 Time(scf)  user:      409.5  user+sys:      409.5  wallclock:      415.2
  
  start of program der1a
  
  end of program der1a
   
 Time(der1a)  user:        7.8  user+sys:        7.8  wallclock:        7.9
  
  start of program rwr
  
  end of program rwr
   
 Time(rwr)  user:       14.8  user+sys:       14.8  wallclock:       16.7
  
  start of program der1b
  
   
  forces (hartrees/bohr) : total     
   
 atom  label           x              y              z
 ---- --------   -------------  -------------  -------------
    1 P1         -9.455424E-03   5.074588E-03  -2.465971E-02
    2 Pd2         1.169129E-02   1.157643E-02  -9.980636E-04
    3 N3          3.141760E-02   7.088460E-03   3.025726E-02
    4 C4         -1.741582E-03   4.589721E-05  -3.667944E-02
    5 C5          3.736979E-03   3.683013E-03   1.077732E-02
    6 C6          1.315433E-03  -2.897307E-03  -2.151378E-03
    7 C7         -9.261402E-03   2.433530E-03   3.425366E-03
    8 C8         -1.806854E-03   2.585709E-03  -1.728659E-03
    9 C9         -1.314883E-04  -4.990532E-03   9.491798E-03
   10 F10         1.162014E-03   4.020042E-04   6.956601E-03
   11 H11        -5.866991E-04  -1.874268E-03   4.380464E-04
   12 H12        -1.480195E-03  -4.253453E-03   3.114038E-03
   13 H13         1.243768E-03   3.587441E-04   1.565609E-03
   14 H14         3.319862E-05   2.234472E-03   2.593727E-04
   15 H15        -2.834285E-02  -4.672089E-02   3.496517E-02
   16 C16         6.191745E-04  -3.578594E-03   1.853130E-03
   17 C17        -8.525820E-04   2.141133E-03   5.961637E-04
   18 C18        -3.130477E-04  -5.848041E-03   2.199053E-04
   19 C19        -9.949442E-03   2.481087E-02  -1.863953E-02
   20 C20         1.688685E-02  -1.930023E-03   1.138970E-02
   21 C21        -8.012402E-04   4.357828E-03  -4.200579E-03
   22 H22        -5.240301E-03   4.587518E-03  -7.860886E-03
   23 H23        -1.955145E-03   1.033558E-02  -1.253319E-04
   24 H24         1.876124E-03   6.688804E-03   9.190239E-03
   25 H25         9.559116E-04  -1.279409E-02  -7.129496E-04
   26 H26        -3.511870E-03  -5.519736E-03  -8.327971E-03
   27 C27        -1.224797E-03  -3.113141E-03   4.408395E-03
   28 C28         4.140666E-03   3.108914E-03  -2.977874E-03
   29 C29        -1.059884E-03   7.968356E-04  -5.684883E-03
   30 C30         6.186328E-04   1.071271E-03  -2.290421E-04
   31 C31         2.281095E-03  -4.833254E-03  -2.628250E-03
   32 C32        -4.484691E-04   8.817504E-04  -3.343643E-03
   33 C33         3.150643E-03  -1.808588E-03   1.722484E-03
   34 C34        -1.554045E-03   4.453996E-03   6.631089E-04
   35 C35         5.610378E-04  -8.215794E-04   5.171356E-03
   36 C36         7.810942E-04  -4.203721E-03   3.735631E-03
   37 C37         5.033297E-04  -3.241511E-03   7.440804E-04
   38 C38         5.947293E-04   3.417419E-04  -7.300692E-03
   39 C39         2.446622E-04  -9.104711E-04   2.321510E-03
   40 C40         2.062477E-03  -1.267103E-03   3.133420E-03
   41 C41         3.063890E-03  -2.561827E-03   8.412742E-05
   42 C42         3.997480E-04  -9.518576E-04  -3.328526E-03
   43 C43        -2.576123E-03  -5.026973E-04  -3.012294E-03
   44 C44        -2.577286E-03  -2.598992E-04   1.371109E-03
   45 C45        -4.378807E-04  -2.023648E-03  -3.181180E-03
   46 C46         2.033225E-04   8.843437E-04   4.194878E-04
   47 C47         1.530799E-03   4.334886E-04  -2.990782E-03
   48 C48         1.149635E-03   1.296575E-03  -1.162768E-04
   49 C49         9.388819E-04   8.401540E-04   6.888474E-04
   50 C50         9.910731E-04   1.005823E-03  -1.743103E-03
   51 C51        -3.498517E-04   9.952567E-04   2.263592E-04
   52 C52        -1.588787E-03  -8.799518E-04  -1.455441E-03
   53 C53        -8.031329E-04   5.149403E-04  -2.227665E-04
   54 H54         3.368202E-03   5.186173E-03   3.703764E-03
   55 H55         2.132143E-03  -5.097995E-03   2.319606E-03
   56 H56        -1.550825E-03   3.499280E-03  -1.209634E-02
   57 H57         2.327799E-03   5.209765E-03   7.066694E-04
   58 H58        -6.023514E-03   2.231182E-03   2.208185E-04
   59 H59         1.528131E-03  -1.988438E-03  -2.407917E-03
   60 H60        -3.749569E-04   2.294899E-04  -3.626086E-03
   61 H61         7.374700E-04  -3.183704E-03   6.633196E-03
   62 H62        -1.335977E-03   5.765127E-03   2.942869E-03
   63 H63         3.896462E-04   9.669225E-04   6.454258E-03
   64 H64         1.579718E-03  -5.220237E-03   3.819650E-03
   65 H65         1.501098E-03  -5.066599E-03  -2.533976E-03
   66 H66         6.237832E-03   1.664899E-03  -1.563161E-03
   67 H67        -5.017019E-03   4.086195E-04  -4.358356E-03
   68 H68        -1.934536E-03   3.381875E-03   4.630689E-03
   69 H69         1.349893E-03  -4.285341E-03  -4.201823E-03
   70 H70         3.952544E-03  -1.899023E-03   5.040665E-03
   71 H71        -5.835694E-03  -1.776834E-03   1.897120E-03
   72 H72        -1.845803E-03   2.683617E-03   3.887672E-03
   73 H73         4.027140E-03  -3.621092E-03  -4.070929E-03
   74 H74         4.898643E-03   1.328575E-03   5.018326E-03
   75 H75        -2.981892E-03   2.247752E-03  -1.325533E-03
   76 H76        -4.879899E-03  -2.174588E-03  -2.350520E-03
   77 H77         1.038715E-03  -5.397478E-03  -4.362127E-03
   78 H78        -5.581914E-03  -8.204754E-04   2.527621E-03
   79 H79        -1.603409E-03   6.055669E-03  -1.388701E-03
   80 H80         2.670182E-03  -3.410366E-03  -4.179948E-03
   81 H81         5.155045E-03   1.294071E-03   4.025453E-03
   82 H82        -3.649971E-03  -4.422325E-03   3.347351E-03
   83 H83         4.054321E-03   2.976400E-03   2.075627E-03
   84 H84         1.408722E-03  -1.458965E-03  -6.833612E-03
   85 H85        -5.743984E-03   5.626835E-03   2.679830E-03
   86 H86         5.292127E-03   1.388422E-03   2.497740E-03
   87 H87        -1.210532E-03  -5.706785E-03   2.476894E-03
   88 H88         1.637583E-03  -1.514579E-03  -6.292108E-03
   89 C89        -1.731941E-03  -2.078854E-03  -4.855565E-04
   90 H90         3.835674E-03   4.548995E-03   2.633411E-04
   91 H91         6.187043E-04  -3.834140E-03   5.852952E-03
   92 H92        -6.170558E-03   2.578683E-03   6.552212E-04
   93 C93         8.794246E-04   3.159449E-03  -7.554144E-03
   94 H94        -6.117889E-03   4.796115E-04   3.210211E-03
   95 H95         2.396312E-03  -4.660813E-03   2.867032E-03
   96 H96         2.484010E-03   7.325131E-03  -2.694968E-02
   97 H97        -6.301169E-03   7.357186E-05   1.426454E-03
   98 H98        -5.862244E-03  -8.545871E-04   1.016620E-03
   99 H99         3.041486E-03   5.161456E-03   3.646927E-03
  100 H100        2.364142E-03   6.062025E-03   2.441682E-03
 -------------   -------------  -------------  -------------
     total        1.256663E-03   3.038699E-04  -3.403889E-03
   
  end of program der1b
   
 Time(der1b)  user:      141.5  user+sys:      141.5  wallclock:      142.1
  
  start of program geopt
  
 ----------------------------------------------------------------------------
  Geometry optimization step   1
  Total energy:     -2217.62046625454 hartrees
 ----------------------------------------------------------------------------
  
  
  Level shifts adjusted to satisfy step-size constraints
   Step size:    0.3000058
   Cos(theta):   0.8552447
   Final level shift:  -3.4998525E-01
  
  gradient maximum:        1.6127E-01 .  (  2.2500E-03 )
  gradient rms:            1.6906E-02 .  (  1.5000E-03 )
  displacement maximum:    1.0608E-01 .  (  9.0000E-03 )
  displacement rms:        1.5482E-02 .  (  6.0000E-03 )
  
  predicted energy change:  -5.2978E-02
  step size:     0.28083
  trust radius:  0.30000
  
  molecular structure not yet converged...
  
  center of mass moved by:
     x:     7.8124E-02     y:     4.1025E-02     z:     1.0381E-02
  
  new geometry: 
                                   angstroms
  atom               x                 y                 z
  P1            0.0454875055      0.0618221593     -0.0341416099 
  Pd2           0.1322964595      0.0758369239      2.3809522902 
  N3            2.1644103451     -0.0460533609      2.3065019783 
  C4            0.1608738467      0.0639790534      7.2231865446 
  C5            0.2219332398      1.2689035960      6.5273143439 
  C6            0.2489706300      1.2751317754      5.1324712655 
  C7            0.2012061547      0.0838416638      4.3952926747 
  C8            0.1514678207     -1.1196800714      5.1170411762 
  C9            0.1271315183     -1.1327306254      6.5094820121 
  F10           0.1215722039      0.0456103482      8.5597539176 
  H11           0.2579595202      2.2047347003      7.0842447851 
  H12           0.3156731143      2.2299971868      4.6188388740 
  H13           0.1610908708     -2.0724332326      4.5894205593 
  H14           0.0889107593     -2.0756969729      7.0533784566 
  H15           2.6005268761      0.9162922976      2.2199321988 
  C16           3.9411053880     -2.0348754813      5.6054314920 
  C17           3.5212806807     -2.7545135025      4.4844357483 
  C18           2.9366802845     -2.0916326208      3.4025046092 
  C19           2.7654040758     -0.7026220895      3.4359247739 
  C20           3.1895678070      0.0162631740      4.5650812013 
  C21           3.7748509735     -0.6469805086      5.6431752659 
  H22           4.3982526483     -2.5574182593      6.4531357544 
  H23           3.6505566332     -3.8421230720      4.4512545148 
  H24           2.6056203562     -2.6576001099      2.5254918243 
  H25           3.0593591741      1.1019729172      4.5985614128 
  H26           4.1015899744     -0.0792728075      6.5215452443 
  C27           1.7111627290     -0.0648460481     -1.0784718551 
  C28          -1.1235244094     -1.4220526190     -0.5654775460 
  C29          -0.7269437382      1.5630887956     -0.8693217354 
  C30           1.6074874386     -0.0647498377     -2.6185257383 
  C31           2.4386222732     -1.3515210786     -0.6481267269 
  C32          -0.9373159040     -2.4916661260      0.5339184175 
  C33          -2.5779134907     -0.9132943808     -0.5448134201 
  C34          -0.8402943083      1.4920750854     -2.2738311021 
  C35          -1.2085918405      2.5759176528     -3.0677215149 
  C36          -1.4684034544      3.8003695384     -2.4555814703 
  C37          -1.4362664488      3.8719725873     -1.0658264202 
  C38          -1.1147037906      2.7747477587     -0.2391066586 
  C39          -1.4314713262      2.9998417667      1.2175567040 
  C40          -2.7837438681      2.8017332571      1.6011509355 
  C41          -3.1710247480      3.0968916232      2.9108627945 
  C42          -2.2713113196      3.5790238464      3.8624134911 
  C43          -0.9621382609      3.8309793258      3.4436942197 
  C44          -0.5236423591      3.5688461974      2.1375991067 
  C45           0.8697858741      4.0015284513      1.7017641489 
  C46           0.8420074583      5.4640649864      1.2114586420 
  C47          -3.8483363877      2.3385620139      0.6045032587 
  C48          -4.8221408481      1.2974282673      1.1859797178 
  C49          -2.7024230989      3.8121067065      5.3026918169 
  C50           1.9445960608      3.8292400955      2.7851683988 
  C51          -4.6460331159      3.5455684325      0.0672694803 
  C52          -3.0965071461      2.4855144604      5.9803639303 
  C53          -3.8323715834      4.8507491486      5.4108458435 
  H54           1.0089033014     -0.8827052696     -3.0325189422 
  H55           1.2283178205      0.8882132901     -3.0105186268 
  H56           2.5515789904     -1.3815106105      0.4408525546 
  H57           1.9230370932     -2.2565484151     -1.0030496916 
  H58           0.1013886160     -2.8491950120      0.5873457429 
  H59          -1.2194882883     -2.1082390765      1.5246795923 
  H60          -2.8236557610     -0.4370149001      0.4150032195 
  H61          -2.7765225116     -0.1990053690     -1.3564880887 
  H62          -0.6324003922      0.5468218984     -2.7675139961 
  H63          -1.2787287084      2.4587070170     -4.1511621141 
  H64          -1.7272794647      4.6824195284     -3.0448331027 
  H65          -1.7048818520      4.8080995987     -0.5733376784 
  H66          -4.2054450274      2.9100440326      3.2064395913 
  H67          -0.2534041585      4.2358301402      4.1688454630 
  H68           1.1548618230      3.3701469589      0.8491913273 
  H69           0.5215980833      6.1360386659      2.0243094859 
  H70           0.1501591656      5.5984603704      0.3674244142 
  H71           1.8458844253      5.7806047409      0.8832447299 
  H72          -3.3334646464      1.8596612782     -0.2426892090 
  H73          -5.4892340930      1.7364061077      1.9450460820 
  H74          -5.4639971001      0.8986121227      0.3840012347 
  H75          -4.2769330782      0.4632528919      1.6492816221 
  H76          -1.8289165341      4.2248614754      5.8383454456 
  H77           1.8062714206      4.5392829188      3.6164065194 
  H78           2.9396630320      4.0279152651      2.3555999369 
  H79           1.9426027236      2.8092861179      3.1926804714 
  H80          -5.1581731722      4.0637378507      0.8944108700 
  H81          -5.4128895568      3.2136405300     -0.6522645598 
  H82          -3.9991454957      4.2751944581     -0.4390424882 
  H83          -4.0042564055      2.0661396076      5.5166111692 
  H84          -3.3030454024      2.6414966450      7.0520410722 
  H85          -2.2974203338      1.7392716324      5.8764642857 
  H86          -4.7421926675      4.5035449212      4.8953842213 
  H87          -3.5384843460      5.8119216627      4.9611918612 
  H88          -4.0969346350      5.0294002456      6.4657658606 
  C89          -0.8633651030     -2.1040790919     -1.9231342074 
  H90          -1.5939290651     -2.9261000333     -2.0264292420 
  H91          -1.0173788707     -1.4413258817     -2.7860887924 
  H92           0.1357351281     -2.5517833951     -1.9953549740 
  C93           2.5498625997      1.1881383644     -0.7678450056 
  H94           3.5323930876      1.0866202869     -1.2616609819 
  H95           2.0694031697      2.0904844621     -1.1763352659 
  H96           2.7209000670      1.3091969528      0.3023622100 
  H97           2.6331564516     -0.1868416311     -3.0089692031 
  H98           3.4466047785     -1.3539657966     -1.0999158634 
  H99          -1.5816093037     -3.3582251053      0.3021898380 
  H100         -3.2548388857     -1.7755211033     -0.6775292001 
   
 
  bond lengths (angstroms):
 
 P1      -Pd2     :   2.416694      P1      -C27     :   1.970062
 P1      -C28     :   1.962343      P1      -C29     :   1.883608
 Pd2     -N3      :   2.037127      Pd2     -C7      :   2.015535
 N3      -H15     :   1.060095      N3      -C19     :   1.438010
 C4      -C5      :   1.392770      C4      -C9      :   1.393781
 C4      -F10     :   1.337271      C5      -C6      :   1.395119
 C5      -H11     :   1.089610      C6      -C7      :   1.401744
 C6      -H12     :   1.086294      C7      -C8      :   1.404229
 C8      -C9      :   1.392715      C8      -H13     :   1.089135
 C9      -H14     :   1.089252      C16     -C17     :   1.396697
 C16     -C21     :   1.398327      C16     -H22     :   1.095736
 C17     -C18     :   1.397048      C17     -H23     :   1.095768
 C18     -C19     :   1.399930      C18     -H24     :   1.095021
 C19     -C20     :   1.404174      C20     -C21     :   1.394538
 C20     -H25     :   1.094002      C21     -H26     :   1.095712
 C27     -C30     :   1.543540      C27     -C31     :   1.539457
 C27     -C93     :   1.539440      C28     -C32     :   1.545127
 C28     -C33     :   1.540944      C28     -C89     :   1.541452
 C29     -C34     :   1.410864      C29     -C38     :   1.419735
 C30     -H54     :   1.094872      C30     -H55     :   1.097983
 C30     -H97     :   1.104242      C31     -H56     :   1.095233
 C31     -H57     :   1.100397      C31     -H98     :   1.104603
 C32     -H58     :   1.099813      C32     -H59     :   1.099202
 C32     -H99     :   1.104417      C33     -H60     :   1.099309
 C33     -H61     :   1.099304      C33     -H100    :   1.104208
 C34     -C35     :   1.393061      C34     -H62     :   1.086483
 C35     -C36     :   1.393377      C35     -H63     :   1.092017
 C36     -C37     :   1.391969      C36     -H64     :   1.091900
 C37     -C38     :   1.410947      C37     -H65     :   1.091345
 C38     -C39     :   1.507606      C39     -C40     :   1.419518
 C39     -C44     :   1.412231      C40     -C41     :   1.397301
 C40     -C47     :   1.530095      C41     -C42     :   1.395487
 C41     -H66     :   1.091926      C42     -C43     :   1.397405
 C42     -C49     :   1.521377      C43     -C44     :   1.402454
 C43     -H67     :   1.091812      C44     -C45     :   1.522763
 C45     -C46     :   1.542785      C45     -C50     :   1.535795
 C45     -H68     :   1.098541      C46     -H69     :   1.102242
 C46     -H70     :   1.099595      C46     -H71     :   1.102584
 C47     -C48     :   1.539600      C47     -C51     :   1.543310
 C47     -H72     :   1.100988      C48     -H73     :   1.101770
 C48     -H74     :   1.101909      C48     -H75     :   1.098976
 C49     -C52     :   1.540905      C49     -C53     :   1.538590
[...]
    C50      Y    -0.00092  0.00006  0.00051  0.00006  0.00002 -0.00001
    C50      Z     0.00026  0.00000 -0.00013  0.00008 -0.00002 -0.00000
    C51      X     0.00002  0.00011 -0.00003  0.00054 -0.00001  0.00000
    C51      Y     0.00004  0.00044  0.00001 -0.00010  0.00001 -0.00000
    C51      Z     0.00002 -0.00040  0.00003 -0.00169 -0.00002 -0.00000
    C52      X    -0.00001 -0.00002 -0.00010  0.00056 -0.00001 -0.00000
    C52      Y     0.00004  0.00003  0.00013  0.00087  0.00001  0.00000
    C52      Z     0.00002  0.00001  0.00000  0.00086  0.00001  0.00000
    C53      X     0.00007  0.00001 -0.00001  0.00030 -0.00000 -0.00000
    C53      Y     0.00004  0.00002 -0.00000  0.00002  0.00001  0.00000
    C53      Z    -0.00001  0.00000 -0.00002 -0.00006  0.00001  0.00000
    H54      X     0.00013 -0.00036 -0.00005 -0.00004  0.00116  0.00001
    H54      Y     0.00019 -0.00063 -0.00008 -0.00007 -0.00070  0.00003
    H54      Z     0.00016 -0.00051 -0.00005 -0.00007 -0.00047  0.00001
    H55      X    -0.00002 -0.00155 -0.00006  0.00007  0.00885  0.00004
    H55      Y     0.00007  0.00345  0.00007 -0.00017 -0.01743 -0.00008
    H55      Z    -0.00002 -0.00089 -0.00002  0.00005  0.00444  0.00007
    H56      X     0.00011 -0.00001 -0.00008 -0.00001  0.00011  0.00019
    H56      Y     0.00016 -0.00003 -0.00011 -0.00001 -0.00017 -0.00025
    H56      Z     0.00068  0.00015  0.00048  0.00006  0.00019 -0.00284
    H57      X     0.00068  0.00012  0.00001 -0.00003  0.00000  0.00001
    H57      Y     0.00221  0.00029  0.00006 -0.00011  0.00012  0.00010
    H57      Z     0.00134  0.00024  0.00001 -0.00009  0.00001  0.00060
    H58      X    -0.07741 -0.00129 -0.00304 -0.00026 -0.00040 -0.00065
    H58      Y     0.00286  0.00004  0.00014  0.00002 -0.00009  0.00013
    H58      Z    -0.01020 -0.00017 -0.00040 -0.00002 -0.00004  0.00018
    H59      X    -0.05894 -0.00076 -0.00230 -0.00015 -0.00127  0.00045
    H59      Y     0.02516  0.00030  0.00102  0.00008  0.00052  0.00010
    H59      Z     0.14440  0.00186  0.00562  0.00040  0.00291  0.00020
    H60      X    -0.00220  0.00025  0.00012  0.00016 -0.00101  0.00000
    H60      Y     0.00111 -0.00011 -0.00003  0.00001  0.00023 -0.00006
    H60      Z     0.00457 -0.00083 -0.00032 -0.00044  0.00329 -0.00005
    H61      X     0.00093 -0.00043 -0.00004  0.00011  0.00174 -0.00007
    H61      Y    -0.00183  0.00030  0.00011 -0.00015 -0.00216  0.00006
    H61      Z     0.00176 -0.00030 -0.00008  0.00020  0.00117 -0.00007
    H62      X    -0.00100  0.05834 -0.00118 -0.00103 -0.44608 -0.00003
    H62      Y     0.00138 -0.07800  0.00160  0.00137  0.59380  0.00003
    H62      Z     0.00136 -0.07692  0.00161  0.00126  0.56361  0.00003
    H63      X    -0.00125  0.04278 -0.00064 -0.00010  0.02375  0.00001
    H63      Y     0.00044 -0.01487  0.00024  0.00003 -0.01111 -0.00000
    H63      Z    -0.01125  0.38245 -0.00554 -0.00105  0.18349  0.00005
    H64      X    -0.01276  0.44974 -0.00586 -0.00229  0.02686  0.00003
    H64      Y     0.01423 -0.50167  0.00654  0.00255 -0.03001 -0.00004
    H64      Z    -0.00783  0.27630 -0.00359 -0.00146  0.01487  0.00002
    H65      X    -0.00565  0.22094 -0.00342 -0.00122  0.01192 -0.00001
    H65      Y     0.00729 -0.28398  0.00439  0.00169 -0.01536  0.00001
    H65      Z     0.00720 -0.27967  0.00427  0.00169 -0.01529 -0.00002
    H66      X     0.00452 -0.00258  0.03503 -0.68752  0.00117  0.00002
    H66      Y     0.00289 -0.00167  0.02209 -0.42604  0.00070  0.00001
    H66      Z    -0.00332  0.00184 -0.02590  0.50261 -0.00090 -0.00002
    H67      X    -0.00553 -0.00198  0.00193  0.00306 -0.00041 -0.00004
    H67      Y    -0.00773 -0.00282  0.00278  0.00353 -0.00059 -0.00003
    H67      Z    -0.00412 -0.00159  0.00154  0.00102 -0.00037 -0.00004
    H68      X     0.00004  0.00014 -0.00008  0.00013  0.00010 -0.00002
    H68      Y    -0.00004 -0.00006  0.00014 -0.00032 -0.00004  0.00002
    H68      Z    -0.00008 -0.00015  0.00032 -0.00072 -0.00013  0.00004
    H69      X     0.00009 -0.00049 -0.00006  0.00011  0.00001  0.00000
    H69      Y    -0.00027  0.00157  0.00022 -0.00039  0.00002  0.00001
    H69      Z    -0.00042  0.00274  0.00031 -0.00053  0.00004  0.00000
    H70      X    -0.00078  0.00985 -0.00001 -0.00007  0.00053 -0.00002
    H70      Y    -0.00006  0.00046  0.00002 -0.00001  0.00004  0.00002
    H70      Z    -0.00046  0.00578 -0.00002 -0.00005  0.00031 -0.00002
    H71      X     0.00004  0.00126 -0.00023  0.00028 -0.00012 -0.00005
    H71      Y     0.00005  0.00081 -0.00019  0.00015 -0.00012 -0.00004
    H71      Z    -0.00003 -0.00096  0.00020 -0.00022  0.00011  0.00005
    H72      X     0.00036 -0.00008 -0.00003 -0.00344  0.00014 -0.00000
    H72      Y    -0.00020 -0.00007  0.00019 -0.00018 -0.00024 -0.00002
    H72      Z    -0.00090  0.00012  0.00057  0.00402 -0.00048 -0.00004
    H73      X     0.00061  0.00003 -0.00035 -0.01050 -0.00002  0.00004
    H73      Y    -0.00039 -0.00002 -0.00004  0.00548  0.00003 -0.00003
    H73      Z    -0.00316 -0.00019  0.00044  0.02699  0.00001 -0.00006
    H74      X     0.00192  0.00024  0.00135  0.00240  0.00030  0.00020
    H74      Y     0.00259  0.00034  0.00174  0.00196  0.00031  0.00010
    H74      Z     0.00181  0.00022  0.00132  0.00201  0.00018  0.00010
    H75      X     0.01874  0.00120  0.00694 -0.00541 -0.00006  0.00020
    H75      Y    -0.00845 -0.00058 -0.00274  0.00227 -0.00001 -0.00031
    H75      Z     0.00165  0.00020  0.00180 -0.00102 -0.00004  0.00008
    H76      X    -0.00090 -0.00003 -0.00064  0.00147  0.00001  0.00002
    H76      Y     0.00020  0.00001 -0.00037  0.00043 -0.00000  0.00000
    H76      Z    -0.00049 -0.00007 -0.00046  0.00205 -0.00003  0.00000
    H77      X     0.00002  0.00003  0.00001 -0.00000 -0.00002  0.00001
    H77      Y    -0.00012 -0.00029  0.00006 -0.00049 -0.00002  0.00001
    H77      Z     0.00058 -0.00046 -0.00034 -0.00070 -0.00005 -0.00000
    H78      X     0.00188 -0.00020 -0.00113  0.00029 -0.00026 -0.00004
    H78      Y     0.00096 -0.00010 -0.00051  0.00017 -0.00018 -0.00000
    H78      Z    -0.00175  0.00015  0.00099 -0.00030  0.00021  0.00002
    H79      X    -0.00397  0.00030  0.00224  0.00013  0.00006  0.00001
    H79      Y     0.01136 -0.00053 -0.00664 -0.00033 -0.00010  0.00009
    H79      Z    -0.00362  0.00015  0.00229  0.00008  0.00001  0.00000
    H80      X     0.00018 -0.00076  0.00020 -0.00835  0.00002  0.00000
    H80      Y    -0.00008  0.00042 -0.00009  0.00469 -0.00003 -0.00001
    H80      Z    -0.00032  0.00187 -0.00044  0.01647 -0.00003  0.00000
    H81      X    -0.00029 -0.00051  0.00014  0.00112  0.00017  0.00005
    H81      Y    -0.00028 -0.00069  0.00010  0.00209  0.00015  0.00004
    H81      Z    -0.00020 -0.00040  0.00006  0.00131  0.00011  0.00003
    H82      X     0.00001 -0.00009 -0.00002 -0.00023 -0.00002 -0.00001
    H82      Y    -0.00038 -0.00508 -0.00003 -0.00524 -0.00022 -0.00001
    H82      Z     0.00027  0.00340  0.00002  0.00365  0.00014  0.00000
    H83      X    -0.00005  0.00010  0.00095 -0.01148  0.00005  0.00002
    H83      Y    -0.00001 -0.00001 -0.00018  0.00014  0.00000 -0.00000
    H83      Z     0.00001  0.00005  0.00058 -0.00656  0.00004  0.00002
    H84      X     0.00002  0.00001  0.00003 -0.00050  0.00001  0.00000
    H84      Y    -0.00008 -0.00009 -0.00006 -0.00460 -0.00005 -0.00002
    H84      Z    -0.00022 -0.00026 -0.00017 -0.00921 -0.00015 -0.00006
    H85      X     0.00007  0.00006  0.00026  0.00282  0.00001 -0.00001
    H85      Y    -0.00029 -0.00027 -0.00065 -0.01122 -0.00004 -0.00001
    H85      Z     0.00003  0.00002 -0.00015 -0.00037  0.00002  0.00001
    H86      X    -0.00039  0.00001 -0.00007 -0.00185  0.00003  0.00001
    H86      Y     0.00004 -0.00000  0.00009  0.00029 -0.00000 -0.00000
    H86      Z    -0.00021  0.00002 -0.00005 -0.00112  0.00003  0.00001
    H87      X    -0.00056 -0.00014 -0.00017 -0.00151  0.00001  0.00000
    H87      Y    -0.00051 -0.00011 -0.00022 -0.00144  0.00002  0.00001
    H87      Z     0.00042  0.00010  0.00013  0.00095  0.00000  0.00000
    H88      X     0.00003  0.00003  0.00001 -0.00038  0.00002  0.00001
    H88      Y    -0.00003 -0.00009  0.00007  0.00114 -0.00008 -0.00003
    H88      Z    -0.00007 -0.00021  0.00014  0.00218 -0.00018 -0.00006
    C89      X     0.00006  0.00058 -0.00002 -0.00001 -0.00192  0.00000
    C89      Y     0.00010 -0.00069  0.00002  0.00002  0.00247  0.00001
    C89      Z    -0.00001  0.00055  0.00001 -0.00001 -0.00235 -0.00000
    H90      X    -0.00014  0.00076 -0.00014 -0.00008 -0.00199  0.00004
    H90      Y    -0.00041  0.00137 -0.00040 -0.00018 -0.00286  0.00010
    H90      Z     0.00001  0.00046 -0.00021 -0.00006 -0.00127  0.00009
    H91      X     0.00046 -0.00322  0.00006  0.00008  0.01317 -0.00001
    H91      Y    -0.00120  0.00796 -0.00013 -0.00017 -0.03548  0.00005
    H91      Z     0.00142 -0.00768  0.00017  0.00019  0.03237 -0.00012
    H92      X    -0.00126 -0.00458  0.00023  0.00007  0.01329 -0.00002
    H92      Y     0.00005  0.00029  0.00000  0.00000 -0.00072 -0.00003
    H92      Z     0.00028  0.00034  0.00001  0.00000 -0.00107 -0.00001
    C93      X     0.00006  0.00004 -0.00002 -0.00002  0.00001  0.00002
    C93      Y    -0.00007 -0.00004  0.00000  0.00001  0.00010  0.00007
    C93      Z     0.00009  0.00005 -0.00002 -0.00001 -0.00014 -0.00029
    H94      X    -0.00054 -0.00039  0.00026  0.00012 -0.00066 -0.00041
    H94      Y    -0.00014 -0.00008  0.00006  0.00001 -0.00006 -0.00006
    H94      Z     0.00015  0.00009 -0.00007 -0.00003  0.00012  0.00020
    H95      X    -0.00048 -0.00021  0.00003  0.00009  0.00068  0.00033
    H95      Y     0.00082  0.00046 -0.00005 -0.00019 -0.00102 -0.00061
    H95      Z    -0.00022 -0.00005  0.00000  0.00005  0.00009  0.00014
    H96      X     0.00013  0.00004 -0.00006 -0.00001 -0.00002 -0.00000
    H96      Y     0.00008  0.00011 -0.00005 -0.00001 -0.00029 -0.00061
    H96      Z    -0.00084 -0.00052  0.00025  0.00009  0.00144  0.00393
    H97      X    -0.00035 -0.00207  0.00035  0.00015  0.00546 -0.00003
    H97      Y    -0.00006 -0.00011  0.00007  0.00002 -0.00014  0.00001
    H97      Z     0.00014  0.00024 -0.00014 -0.00003 -0.00024  0.00002
    H98      X     0.00017 -0.00041  0.00024  0.00007 -0.00041  0.00018
    H98      Y     0.00010 -0.00004  0.00004  0.00000  0.00007  0.00011
    H98      Z    -0.00000  0.00004 -0.00004 -0.00000 -0.00000 -0.00011
    H99      X     0.00757  0.00024  0.00015 -0.00004  0.00014 -0.00006
    H99      Y     0.01353  0.00061  0.00011 -0.00015  0.00047 -0.00006
    H99      Z     0.00384  0.00015 -0.00000 -0.00005  0.00012 -0.00016
    H100     X    -0.00002  0.00020 -0.00017 -0.00013  0.00011  0.00007
    H100     Y     0.00011  0.00061 -0.00034 -0.00039  0.00023  0.00012
    H100     Z    -0.00023  0.00017 -0.00012 -0.00015 -0.00002  0.00007
  
  Number of imaginary frequencies:   0
   
  Writing vibrational animation data to red_elim_N_trans_L1_PL274.vib
  Writing IR vibrational spectrum data to red_elim_N_trans_L1_PL274_vib.spm
  rotational symmetry number:  1

  rotational temperatures (K):      0.004302      0.003391      0.002567
   
  The Quasi-Harmonic approximation will be applied to compute
  vibrational constributions to thermodynamic properties.
  Frequencies will be adjusted to a minimum value of  100.00 cm^-1.

  vibrational temperatures:
       mode:      1        2        3        4        5        6
  temp. (K):   143.88   143.88   143.88   143.88   143.88   143.88
   
       mode:      7        8        9       10       11       12
  temp. (K):   143.88   143.88   143.88   143.88   143.88   143.88
   
       mode:     13       14       15       16       17       18
  temp. (K):   143.88   144.09   150.22   154.54   164.81   167.70
   
       mode:     19       20       21       22       23       24
  temp. (K):   171.49   178.83   188.87   194.62   200.13   214.37
   
       mode:     25       26       27       28       29       30
  temp. (K):   228.95   233.03   257.99   273.62   281.34   297.83
   
       mode:     31       32       33       34       35       36
  temp. (K):   302.91   304.67   321.53   324.90   339.86   356.25
   
       mode:     37       38       39       40       41       42
  temp. (K):   358.59   364.45   368.97   374.93   378.02   387.98
   
       mode:     43       44       45       46       47       48
  temp. (K):   397.84   401.23   408.45   412.66   431.83   433.19
   
       mode:     49       50       51       52       53       54
  temp. (K):   443.68   459.54   465.93   480.42   482.44   485.00
   
       mode:     55       56       57       58       59       60
  temp. (K):   492.44   501.46   515.62   523.54   543.96   554.33
   
       mode:     61       62       63       64       65       66
  temp. (K):   573.00   582.88   587.33   592.51   597.31   599.22
   
       mode:     67       68       69       70       71       72
  temp. (K):   610.00   613.12   620.10   650.58   678.05   684.73
   
       mode:     73       74       75       76       77       78
  temp. (K):   709.22   716.38   734.76   743.34   759.03   788.68
   
       mode:     79       80       81       82       83       84
  temp. (K):   795.22   813.49   823.33   833.21   849.57   852.09
   
       mode:     85       86       87       88       89       90
  temp. (K):   879.48   884.10   905.14   910.79   913.95   938.52
   
       mode:     91       92       93       94       95       96
  temp. (K):   956.42   988.55  1021.42  1026.10  1078.87  1115.75
   
       mode:     97       98       99      100      101      102
  temp. (K):  1117.07  1123.57  1143.69  1145.13  1177.12  1190.49
   
       mode:    103      104      105      106      107      108
  temp. (K):  1197.08  1201.39  1207.97  1211.13  1213.97  1231.36
   
       mode:    109      110      111      112      113      114
  temp. (K):  1238.86  1278.63  1300.60  1310.02  1313.59  1334.65
   
       mode:    115      116      117      118      119      120
  temp. (K):  1342.21  1368.13  1368.44  1369.02  1370.15  1379.05
   
       mode:    121      122      123      124      125      126
  temp. (K):  1379.25  1384.51  1388.19  1395.47  1397.09  1401.44
   
       mode:    127      128      129      130      131      132
  temp. (K):  1411.00  1414.49  1419.33  1423.31  1424.00  1427.28
   
       mode:    133      134      135      136      137      138
  temp. (K):  1431.58  1450.73  1466.31  1470.93  1481.06  1506.63
   
       mode:    139      140      141      142      143      144
  temp. (K):  1518.44  1523.02  1528.00  1529.12  1541.20  1556.90
   
       mode:    145      146      147      148      149      150
  temp. (K):  1578.46  1590.40  1596.27  1606.00  1617.28  1638.79
   
       mode:    151      152      153      154      155      156
  temp. (K):  1642.86  1651.24  1659.27  1672.88  1684.02  1722.32
   
       mode:    157      158      159      160      161      162
  temp. (K):  1722.55  1723.79  1738.33  1740.58  1748.79  1749.14
   
       mode:    163      164      165      166      167      168
  temp. (K):  1756.73  1765.92  1774.52  1785.09  1798.43  1800.80
   
       mode:    169      170      171      172      173      174
  temp. (K):  1815.54  1825.09  1835.55  1861.13  1866.33  1872.85
   
       mode:    175      176      177      178      179      180
  temp. (K):  1896.29  1905.26  1919.77  1927.36  1929.90  1943.22
   
       mode:    181      182      183      184      185      186
  temp. (K):  1950.43  1963.65  1968.99  1982.21  1997.12  2018.92
   
       mode:    187      188      189      190      191      192
  temp. (K):  2023.12  2043.95  2046.51  2047.83  2050.77  2050.97
   
       mode:    193      194      195      196      197      198
  temp. (K):  2052.13  2056.40  2056.89  2076.31  2078.93  2081.60
   
       mode:    199      200      201      202      203      204
  temp. (K):  2094.71  2106.59  2119.93  2122.38  2149.52  2157.41
   
       mode:    205      206      207      208      209      210
  temp. (K):  2161.03  2166.28  2167.82  2175.13  2178.43  2178.93
   
       mode:    211      212      213      214      215      216
  temp. (K):  2181.86  2183.05  2184.27  2185.80  2188.93  2191.27
   
       mode:    217      218      219      220      221      222
  temp. (K):  2194.54  2198.72  2199.27  2202.09  2204.52  2207.05
   
       mode:    223      224      225      226      227      228
  temp. (K):  2207.74  2211.42  2213.58  2216.71  2217.47  2220.67
   
       mode:    229      230      231      232      233      234
  temp. (K):  2224.12  2231.44  2249.64  2306.46  2338.40  2357.46
   
       mode:    235      236      237      238      239      240
  temp. (K):  2361.13  2369.89  2379.13  2397.76  2403.64  4369.89
   
       mode:    241      242      243      244      245      246
  temp. (K):  4376.73  4378.58  4379.41  4380.53  4380.92  4383.98
   
       mode:    247      248      249      250      251      252
  temp. (K):  4384.38  4385.23  4386.68  4389.01  4393.83  4394.57
   
       mode:    253      254      255      256      257      258
  temp. (K):  4446.67  4478.01  4480.30  4485.49  4487.19  4487.59
   
       mode:    259      260      261      262      263      264
  temp. (K):  4488.97  4490.77  4492.16  4494.18  4494.98  4496.41
   
       mode:    265      266      267      268      269      270
  temp. (K):  4498.52  4504.44  4504.50  4518.72  4520.86  4528.15
   
       mode:    271      272      273      274      275      276
  temp. (K):  4531.81  4542.46  4543.58  4544.35  4552.21  4553.77
   
       mode:    277      278      279      280      281      282
  temp. (K):  4559.96  4560.73  4571.01  4575.25  4587.66  4591.49
   
       mode:    283      284      285      286      287      288
  temp. (K):  4592.42  4595.43  4601.05  4602.36  4604.95  4621.24
   
       mode:    289      290      291      292      293      294
  temp. (K):  4621.50  4622.24  4625.04  4638.91  4665.49  4993.94
   
   
  Thermodynamic properties calculated assuming an ideal gas

  In the table below, the units for temperature
  are kelvins, the units for U, H, and G are
  kcal/mol and the units for Cv and S are cal/(mol K)

  The zero point energy (ZPE):    547.192 kcal/mol
  is not included in U, H, or G in the table below
  
 
  =============================================================================
  Thermodynamic properties for P = 1.00E+00 atm, calculated at   1 temperatures


  T =   298.15 K, P = 1.00E+00 atm
   
                  U         Cv          S          H          G        ln(Q)
              =========  =========  =========  =========  =========  =========
  trans.          0.889      2.981     45.591      1.481    -12.112   20.44238
  rot.            0.889      2.981     38.093      0.889    -10.469   17.66891
  vib.           27.719    183.012    166.958     27.719    -22.060   37.23292
  elec.           0.000      0.000      0.000      0.000      0.000    0.00000
  ----------------------------------------------------------------------------
  total          29.496    188.974    250.642     30.089    -44.640   75.34422
   
   Total internal energy, Utot(SCFE + ZPE + U):   -2216.799290 hartrees
   Total enthalpy, Htot (Utot + nRT), with n=1:   -2216.798346 hartrees
    Total Gibbs free energy, Gtot (Htot - T*S):   -2216.917434 hartrees
   
  end of program freq
   
 Time(freq)  user:        2.8  user+sys:        2.8  wallclock:        8.3
  
  start of program post
  
  Writing input files for PBF
  end of program post
   
 Time(post)  user:        1.7  user+sys:        1.7  wallclock:        1.8

 Total cpu seconds     user:   93665.029   user+sys:   93665.029
  
 Total elapsed time:    94420 seconds

Job red_elim_N_trans_L1_PL274 completed on bp1-compute154.data.bp.acrc.priv at Tue Mar 19 20:00:29 2024
