Job enc_comp_L1_PL344 started on bp1-compute145.data.bp.acrc.priv at Fri Mar 21 13:06:30 2025
jobid: bp1-compute145-4-67dd644d

  +--------------------------------------------------------------------+
  |  Jaguar version 12.5, release 138                                  |
  |                                                                    |
  |  Copyright Schrodinger, Inc.                                       |
  |  All Rights Reserved.                                              |
  |                                                                    |
  |  The following have contributed to Jaguar (listed alphabetically): |
  |  Ty Balduf, Mike Beachy, Chandler Bennett, Art Bochevarov,         |
  |  Dale Braden, Yixiang Cao, Alan Chien, Chris Cortis,               |
  |  Rich Friesner, Jim Furness, Bill Goddard, Hod Greeley,            |
  |  Tom Hughes, Leif Jacobson, Jean-Marc Langlois, Daniel Levine,     |
  |  Rob Murphy, Dean Philipp, Tom Pollard, Murco Ringnalda,           |
  |  Daniel Mainz, Pablo Videla, Mark Watson, Haoyu Yu.                |
  |                                                                    |
  |  Use of this program should be acknowledged in publications as:    |
  |                                                                    |
  |  Jaguar, version 12.5, Schrodinger, Inc., New York, NY, 2024.      |
  |                                                                    |
  |  A. D. Bochevarov, E. Harder, T. F. Hughes, J. R. Greenwood,       |
  |  D. A. Braden, D. M. Philipp, D. Rinaldo, M. D. Halls,             |
  |  J. Zhang, R. A. Friesner, "Jaguar: A High-Performance Quantum     |
  |  Chemistry Software Program with Strengths in Life and Materials   |
  |  Sciences", Int. J. Quantum Chem., 2013, 113(18), 2110-2142.       |
  +--------------------------------------------------------------------+
  
  start of program pre
  
  Job name: enc_comp_L1_PL344
  Executables used: /software/local/apps/schrodinger2024-3/jaguar-v12.5/bin/Linux-x86_64
  Temporary files : /tmp/ar21627/enc_comp_L1_PL344#bp1-compute145-4-67dd644d
  Basis file : using default basis file from /software/local/apps/schrodinger2024-3
  Maestro file (input):  enc_comp_L1_PL344.mae
  Maestro file (output): enc_comp_L1_PL344.01.mae
  
 Contents of input file: &gen and (if present) &atomic sections only
 ----------------Contents start----------------
&gen
dftname=b3pw91-d3
basis=6-31G*
numd=5
ip11=2
iaccg=3
isolv=2
igeopt=1
solvent=benzene
ifreq=1
&
&atomic
atom basis
Pd2 lacv3p*
Br3 lacv3p*
&
 -----------------Contents end-----------------
 
  PS calculation requested. Using PS version of 6-31g*
  basis set:               non_standard                    
  net molecular charge:    0
  multiplicity:            1
  
  Using up to   4 threads per process
  
  This run will use ECP on            2  atoms
  number of basis functions....          788
  
  input atom labels were not unique
  original atom labels:
 P1       Pd2      Br3      C4       C5       C6       C7       C8      
 C9       F10      H11      H12      H13      H14      C3       C4      
 C5       C6       C7       C8       C9       C10      C11      C12     
 C13      C14      C15      C16      C17      C18      C19      C20     
 C21      C22      C23      C24      C25      C26      C27      C28     
 C29      C30      C31      C32      C33      C34      C35      O36     
 C37      O38      C39      H40      H41      H42      H43      H44     
 H45      H46      H47      H48      H49      H50      H51      H52     
 H53      H54      H55      H56      H57      H58      H59      H60     
 H61      H62      H63      H64      H65      H66      H67      H68     
 H69      H70      H71      H72      H73      H74      H75      H76     
 H77      H78      H79      H80      H81      H82      H83      H84     
 H85      H86      H87      H88      H89      H90      H91      H92     
  new atom labels:
 P1       Pd2      Br3      C4       C5       C6       C7       C8      
 C9       F10      H11      H12      H13      H14      C15      C16     
 C17      C18      C19      C20      C21      C22      C23      C24     
 C25      C26      C27      C28      C29      C30      C31      C32     
 C33      C34      C35      C36      C37      C38      C39      C40     
 C41      C42      C43      C44      C45      C46      C47      O48     
 C49      O50      C51      H52      H53      H54      H55      H56     
 H57      H58      H59      H60      H61      H62      H63      H64     
 H65      H66      H67      H68      H69      H70      H71      H72     
 H73      H74      H75      H76      H77      H78      H79      H80     
 H81      H82      H83      H84      H85      H86      H87      H88     
 H89      H90      H91      H92      H93      H94      H95      H96     
 H97      H98      H99      H100     H101     H102     H103     H104    
 
  
 Input geometry:
                                   angstroms
  atom               x                 y                 z
  P1            0.0000000000      0.0000000000      0.0000000000 
  Pd2           0.0000000000      0.0000000000      2.3304135331 
  Br3           3.8542814242      0.0000000000      5.4292064860 
  C4           -0.4549197086      1.3497693940      4.0153359349 
  C5           -0.2669344836      0.0058806450      4.4490366009 
  C6            1.0407983309     -0.3826452052      4.8592552538 
  C7            2.0537516852      0.5613053264      4.8924840041 
  C8            1.8506734706      1.9005134066      4.5247241645 
  C9            0.5965376026      2.2939392222      4.0848657340 
  F10          -1.7240847964      1.8372913075      3.9128173605 
  H11          -1.1259178029     -0.6226753472      4.6805948296 
  H12           1.2142790067     -1.4018616494      5.1904970608 
  H13           2.6689545036      2.6135377646      4.5613194024 
  H14           0.3946228406      3.3233536154      3.8042291155 
  C15           1.7300610000      0.0000000000     -0.6757070000 
  C16           2.3683310000     -1.3786470000     -0.9527850000 
  C17           3.6839660000     -1.2353690000     -1.7327820000 
  C18           4.6878420000     -0.3819010000     -0.9461730000 
  C19           4.0786400000      0.9798580000     -0.5868500000 
  C20           2.7482580000      0.8044910000      0.1612460000 
  C21          -0.8180240000      1.4096690000     -0.6917300000 
  C22          -2.2927740000      1.4539250000     -0.2588000000 
  C23          -3.0649390000      2.6131910000     -0.9019730000 
  C24          -2.3959200000      3.9537300000     -0.5771470000 
  C25          -0.9361930000      3.9384250000     -1.0456500000 
  C26          -0.1619940000      2.7737060000     -0.4106920000 
  C27          -0.9407660000     -1.3859480000     -0.6815250000 
  C28          -1.6738125872     -2.3161384009      0.1141116587 
  C29          -2.5134174674     -3.2605751516     -0.5240955105 
  C30          -2.6173510128     -3.2340257141     -1.9234076241 
  C31          -1.9183950075     -2.3015299328     -2.6901990567 
  C32          -1.0735400134     -1.3571029430     -2.0903289547 
  C33          -1.6173562052     -2.3803924065      1.5383804198 
  C34          -2.7097877312     -1.9094792274      2.3328230168 
  C35          -2.6332593259     -1.9776224076      3.7367162723 
  C36          -1.5323793991     -2.4998835426      4.4215486242 
  C37          -0.4834933927     -2.9751426397      3.6298823587 
  C38          -0.4959410722     -2.9302975633      2.2233286354 
  C39           0.6597165394     -3.6503670691      1.5432455634 
  C40           0.4111849899     -5.1687471161      1.6369697773 
  C41           2.0520753415     -3.3232316462      2.1205782138 
  C42          -5.2764701539     -1.8544202661      2.2728574508 
  C43          -3.9580805555     -1.2021048488      1.8051498680 
  C44          -3.9793205492      0.2780220728      2.2452926512 
  C45          -1.4362255010     -4.0146042161      6.4272592594 
  C46          -1.4885595395     -2.5593439017      5.9346712514 
  C47          -0.3107842456     -1.7396633680      6.4865529699 
  O48          -0.4225270217     -0.4247376911     -2.8440797967 
  C49          -0.3948513675     -0.3896798114     -4.2552232135 
  O50          -3.1425212944     -4.2311405531      0.2038031613 
  C51          -3.8201344277     -5.3387864864     -0.3554691446 
  H52           1.6344330000      0.5420470000     -1.6433500000 
  H53           1.6814530000     -2.0423920000     -1.5239010000 
  H54           2.5802080000     -1.9043560000      0.0047220000 
  H55           4.1212220000     -2.2431430000     -1.9335920000 
  H56           3.4816040000     -0.7640100000     -2.7240900000 
  H57           5.6210130000     -0.2397150000     -1.5425970000 
  H58           4.9748910000     -0.9171950000     -0.0096740000 
  H59           4.7964410000      1.5609340000      0.0409890000 
  H60           3.9073530000      1.5709840000     -1.5179420000 
  H61           2.3481220000      1.8072140000      0.4333270000 
  H62           2.9401670000      0.2834650000      1.1268150000 
  H63          -0.7997930000      1.2640200000     -1.7961970000 
  H64          -2.3371980000      1.5493870000      0.8518520000 
  H65          -2.7961720000      0.4982840000     -0.5365800000 
  H66          -3.1011620000      2.4693480000     -2.0082010000 
  H67          -4.1204230000      2.6175750000     -0.5372480000 
  H68          -2.4356110000      4.1371990000      0.5230460000 
  H69          -2.9491600000      4.7878510000     -1.0721710000 
  H70          -0.9047120000      3.8440790000     -2.1575050000 
  H71          -0.4455580000      4.9074950000     -0.7861250000 
  H72          -0.0908130000      2.9280340000      0.6918250000 
  H73           0.8719580000      2.7918690000     -0.8252090000 
  H74          -3.2516120760     -3.9563310413     -2.4611165482 
  H75          -2.0569832094     -2.3305787981     -3.7826179339 
  H76          -3.4628719227     -1.5951733762      4.3492819409 
  H77           0.3683605404     -3.4233840986      4.1587189205 
  H78           0.6619608496     -3.4545333448      0.4518470850 
  H79           0.3973772249     -5.5217594052      2.6934197610 
  H80          -0.5673128590     -5.4437891920      1.1783759355 
  H81           1.2040407121     -5.7424013396      1.1030713023 
  H82           2.2199262441     -3.7634442479      3.1283586141 
  H83           2.8607204490     -3.7399521189      1.4784284700 
  H84           2.2093754295     -2.2252668878      2.2097788247 
  H85          -5.4892537843     -1.6636343975      3.3485871750 
  H86          -6.1439797118     -1.4553315805      1.6981876388 
  H87          -5.2674518551     -2.9584909057      2.1496987963 
  H88          -3.9553691014     -1.1528827153      0.6935616443 
  H89          -4.0937450956      0.3976544812      3.3461014525 
  H90          -4.8233131173      0.8289149816      1.7689715750 
  H91          -3.0408642423      0.8011361576      1.9625162942 
  H92          -0.5027672483     -4.5291777710      6.1048656300 
  H93          -2.3002706521     -4.5981600894      6.0333885180 
  H94          -1.4756133278     -4.0629952412      7.5399413553 
  H95          -2.4246072888     -2.1058752121      6.3427813636 
  H96           0.6717601767     -2.1578518002      6.1707272456 
  H97          -0.3616079404     -0.6840915135      6.1323374882 
  H98          -0.3216982015     -1.7224125530      7.6008021411 
  H99           0.2662325470      0.4570177668     -4.5473824852 
  H100         -1.4248372171     -0.2050876112     -4.6362133438 
  H101          0.0354341860     -1.3447297159     -4.6338480700 
  H102         -4.1280411365     -6.0032803575      0.4824275867 
  H103         -4.7246548741     -4.9759584177     -0.8946163398 
  H104         -3.1227742304     -5.8966496108     -1.0211133810 
   
  principal moments of inertia:
        amu*angstrom^2:              7388.31626              9412.01965             11046.71676
                g*cm^2:          1.22685863E-36          1.56290244E-36          1.83435025E-36
   
  rotational constants:
               cm^(-1):      0.00228166      0.00179107      0.00152603
                   GHz:      0.06840246      0.05369507      0.04574925
   
  Molecular weight:     816.23 amu
   
  Stoichiometry: PdC41PH57BrO2F
  Molecular Point Group: C1      
  Point Group used: C1
  
 
Number of optimization coordinates:   350
Number of independent coordinates:    350
Number of non-redundant coordinates:  306
Number of frozen coordinates:           0
Number of harmonic constraints:         0
 
Number of geometric degrees of freedom:   306
Maximum geometric degrees of freedom:     306
 " " " " " excluding dummy atoms:         306
 
 
  bond lengths (angstroms):
 
 P1      -Pd2     :   2.330414      P1      -C15     :   1.857334
 P1      -C21     :   1.770542      P1      -C27     :   1.808416
 Pd2     -C4      :   2.206308      Pd2     -C5      :   2.135381
 Br3     -C7      :   1.960878      C4      -C5      :   1.424595
 C4      -C9      :   1.414869      C4      -F10     :   1.363440
 C5      -C6      :   1.424569      C5      -H11     :   1.089291
 C6      -C7      :   1.384999      C6      -H12     :   1.085642
 C7      -C8      :   1.403555      C8      -C9      :   1.386043
 C8      -H13     :   1.085968      C9      -H14     :   1.085919
 C15     -C16     :   1.544289      C15     -C20     :   1.544157
 C15     -H52     :   1.113235      C16     -C17     :   1.536170
 C16     -H53     :   1.112894      C16     -H54     :   1.112691
 C17     -C18     :   1.534578      C17     -H55     :   1.116748
 C17     -H56     :   1.116164      C18     -C19     :   1.534480
 C18     -H57     :   1.116578      C18     -H58     :   1.116229
 C19     -C20     :   1.536332      C19     -H59     :   1.116723
 C19     -H60     :   1.116110      C20     -H61     :   1.113369
 C20     -H62     :   1.113832      C21     -C22     :   1.537620
 C21     -C26     :   1.539466      C21     -H63     :   1.114178
 C22     -C23     :   1.534212      C22     -H64     :   1.115632
 C22     -H65     :   1.115267      C23     -C24     :   1.533018
 C23     -H66     :   1.116129      C23     -H67     :   1.116732
 C24     -C25     :   1.533145      C24     -H68     :   1.116092
 C24     -H69     :   1.116638      C25     -C26     :   1.535945
 C25     -H70     :   1.116295      C25     -H71     :   1.116769
 C26     -H72     :   1.115539      C26     -H73     :   1.114096
 C27     -C28     :   1.426762      C27     -C32     :   1.415341
 C28     -C29     :   1.415700      C28     -C33     :   1.426835
 C29     -C30     :   1.403418      C29     -O50     :   1.366604
 C30     -C31     :   1.395011      C30     -H74     :   1.101428
 C31     -C32     :   1.401987      C31     -H75     :   1.101558
 C32     -O48     :   1.364281      C33     -C34     :   1.430491
 C33     -C38     :   1.424472      C34     -C35     :   1.407628
 C34     -C43     :   1.528742      C35     -C36     :   1.397744
 C35     -H76     :   1.099891      C36     -C37     :   1.397415
 C36     -C46     :   1.514924      C37     -C38     :   1.407323
 C37     -H77     :   1.098291      C38     -C39     :   1.522024
 C39     -C40     :   1.541438      C39     -C41     :   1.542399
 C39     -H78     :   1.108831      C40     -H79     :   1.113955
 C40     -H80     :   1.115085      C40     -H81     :   1.114786
 C41     -H82     :   1.112467      C41     -H83     :   1.113517
 C41     -H84     :   1.112756      C42     -C43     :   1.543508
 C42     -H85     :   1.113046      C42     -H86     :   1.114491
 C42     -H87     :   1.110955      C43     -C44     :   1.544329
 C43     -H88     :   1.112681      C44     -H89     :   1.113187
 C44     -H90     :   1.114759      C44     -H91     :   1.110996
 C45     -C46     :   1.537259      C45     -H92     :   1.113583
 C45     -H93     :   1.114561      C45     -H94     :   1.114430
 C46     -C47     :   1.537402      C46     -H95     :   1.117306
 C47     -H96     :   1.113562      C47     -H97     :   1.114578
 C47     -H98     :   1.114436      O48     -C49     :   1.411850
 C49     -H99     :   1.113232      C49     -H100    :   1.113597
 C49     -H101    :   1.113832      O50     -C51     :   1.413798
 C51     -H102    :   1.112848      C51     -H103    :   1.113769
 C51     -H104    :   1.113824
 
  bond angles:
 
 C15     -P1      -Pd2     : 111.334041  C21     -P1      -Pd2     : 112.997327
 C21     -P1      -C15     : 106.751716  C27     -P1      -Pd2     : 112.139500
 C27     -P1      -C15     : 110.332238  C27     -P1      -C21     : 102.861598
 C4      -Pd2     -P1      : 139.790083  C5      -Pd2     -P1      : 172.817172
 C5      -Pd2     -C4      :  38.265372  C5      -C4      -Pd2     :  68.171301
 C9      -C4      -Pd2     : 107.010697  C9      -C4      -C5      : 121.097117
 F10     -C4      -Pd2     : 110.687033  F10     -C4      -C5      : 118.883777
 F10     -C4      -C9      : 117.183816  C4      -C5      -Pd2     :  73.563328
 C6      -C5      -Pd2     :  99.799198  C6      -C5      -C4      : 117.780247
 H11     -C5      -Pd2     : 107.932450  H11     -C5      -C4      : 120.331435
 H11     -C5      -C6      : 120.351769  C7      -C6      -C5      : 119.499655
 H12     -C6      -C5      : 119.379668  H12     -C6      -C7      : 121.041683
 C6      -C7      -Br3     : 118.884051  C8      -C7      -Br3     : 118.535581
 C8      -C7      -C6      : 122.561140  C9      -C8      -C7      : 119.006271
 H13     -C8      -C7      : 120.572301  H13     -C8      -C9      : 120.405679
 C8      -C9      -C4      : 119.907542  H14     -C9      -C4      : 118.797547
 H14     -C9      -C8      : 121.287651  C16     -C15     -P1      : 116.760510
 C20     -C15     -P1      : 114.646323  C20     -C15     -C16     : 106.847527
 H52     -C15     -P1      : 103.662995  H52     -C15     -C16     : 108.314501
 H52     -C15     -C20     : 105.907946  C17     -C16     -C15     : 111.211448
 H53     -C16     -C15     : 111.679997  H53     -C16     -C17     : 108.883871
 H54     -C16     -C15     : 110.248545  H54     -C16     -C17     : 108.537431
 H54     -C16     -H53     : 106.102112  C18     -C17     -C16     : 110.601118
 H55     -C17     -C16     : 110.027297  H55     -C17     -C18     : 109.750386
 H56     -C17     -C16     : 109.576838  H56     -C17     -C18     : 109.815095
 H56     -C17     -H55     : 107.000444  C19     -C18     -C17     : 110.724618
 H57     -C18     -C17     : 110.104777  H57     -C18     -C19     : 110.112838
 H58     -C18     -C17     : 109.364249  H58     -C18     -C19     : 109.342233
 H58     -C18     -H57     : 107.115239  C20     -C19     -C18     : 110.886276
 H59     -C19     -C18     : 109.769420  H59     -C19     -C20     : 110.013431
 H60     -C19     -C18     : 109.608747  H60     -C19     -C20     : 109.498195
 H60     -C19     -H59     : 106.982164  C19     -C20     -C15     : 111.502229
 H61     -C20     -C15     : 111.388588  H61     -C20     -C19     : 109.111490
 H62     -C20     -C15     : 109.862699  H62     -C20     -C19     : 109.045316
 H62     -C20     -H61     : 105.745522  C22     -C21     -P1      : 110.857327
 C26     -C21     -P1      : 115.928139  C26     -C21     -C22     : 109.378978
 H63     -C21     -P1      : 106.000389  H63     -C21     -C22     : 107.371173
 H63     -C21     -C26     : 106.847078  C23     -C22     -C21     : 112.732647
 H64     -C22     -C21     : 108.720752  H64     -C22     -C23     : 109.429831
 H65     -C22     -C21     : 109.762611  H65     -C22     -C23     : 108.413472
 H65     -C22     -H64     : 107.656261  C24     -C23     -C22     : 110.626189
 H66     -C23     -C22     : 109.539408  H66     -C23     -C24     : 109.686039
 H67     -C23     -C22     : 109.983071  H67     -C23     -C24     : 109.866913
 H67     -C23     -H66     : 107.069708  C25     -C24     -C23     : 110.000606
 H68     -C24     -C23     : 109.699947  H68     -C24     -C25     : 109.677805
 H69     -C24     -C23     : 110.062984  H69     -C24     -C25     : 110.103242
 H69     -C24     -H68     : 107.252736  C26     -C25     -C24     : 111.171369
 H70     -C25     -C24     : 109.393996  H70     -C25     -C26     : 109.478303
 H71     -C25     -C24     : 109.792782  H71     -C25     -C26     : 109.907327
 H71     -C25     -H70     : 107.002557  C25     -C26     -C21     : 112.434621
 H72     -C26     -C21     : 109.280610  H72     -C26     -C25     : 109.622954
 H73     -C26     -C21     : 109.999296  H73     -C26     -C25     : 107.554917
 H73     -C26     -H72     : 107.833293  C28     -C27     -P1      : 123.832937
 C32     -C27     -P1      : 114.098396  C32     -C27     -C28     : 121.343339
 C29     -C28     -C27     : 119.225455  C33     -C28     -C27     : 124.449485
 C33     -C28     -C29     : 116.322323  C30     -C29     -C28     : 118.736932
 O50     -C29     -C28     : 120.443358  O50     -C29     -C30     : 120.691735
 C31     -C30     -C29     : 121.573946  H74     -C30     -C29     : 121.131545
 H74     -C30     -C31     : 117.293272  C32     -C31     -C30     : 121.133741
 H75     -C31     -C30     : 117.674159  H75     -C31     -C32     : 121.191582
 C31     -C32     -C27     : 117.949811  O48     -C32     -C27     : 121.271958
 O48     -C32     -C31     : 120.765950  C34     -C33     -C28     : 120.618772
 C38     -C33     -C28     : 121.905017  C38     -C33     -C34     : 117.467414
 C35     -C34     -C33     : 119.764417  C43     -C34     -C33     : 125.747183
 C43     -C34     -C35     : 114.270544  C36     -C35     -C34     : 123.337088
 H76     -C35     -C34     : 119.842345  H76     -C35     -C36     : 116.815584
 C37     -C36     -C35     : 116.147259  C46     -C36     -C35     : 121.790863
 C46     -C36     -C37     : 122.058730  C38     -C37     -C36     : 123.280324
 H77     -C37     -C36     : 116.627553  H77     -C37     -C38     : 120.073501
 C37     -C38     -C33     : 119.989746  C39     -C38     -C33     : 124.439266
 C39     -C38     -C37     : 115.137511  C40     -C39     -C38     : 108.447251
 C41     -C39     -C38     : 114.697965  C41     -C39     -C40     : 109.372768
 H78     -C39     -C38     : 110.964197  H78     -C39     -C40     : 103.541195
 H78     -C39     -C41     : 109.216446  H79     -C40     -C39     : 111.828064
 H80     -C40     -C39     : 111.066057  H80     -C40     -H79     : 107.517143
 H81     -C40     -C39     : 111.290528  H81     -C40     -H79     : 107.454287
 H81     -C40     -H80     : 107.470254  H82     -C41     -C39     : 113.039231
 H83     -C41     -C39     : 111.120614  H83     -C41     -H82     : 105.352549
 H84     -C41     -C39     : 111.523991  H84     -C41     -H82     : 107.247586
 H84     -C41     -H83     : 108.230131  H85     -C42     -C43     : 112.563474
 H86     -C42     -C43     : 110.933396  H86     -C42     -H85     : 106.747858
 H87     -C42     -C43     : 112.301123  H87     -C42     -H85     : 106.202930
 H87     -C42     -H86     : 107.759837  C42     -C43     -C34     : 113.410265
 C44     -C43     -C34     : 110.875326  C44     -C43     -C42     : 107.874938
 H88     -C43     -C34     : 111.303542  H88     -C43     -C42     : 108.874448
 H88     -C43     -C44     : 104.025938  H89     -C44     -C43     : 112.721430
 H90     -C44     -C43     : 111.239696  H90     -C44     -H89     : 106.953943
 H91     -C44     -C43     : 111.538001  H91     -C44     -H89     : 106.733468
 H91     -C44     -H90     : 107.342713  H92     -C45     -C46     : 111.913632
 H93     -C45     -C46     : 110.855877  H93     -C45     -H92     : 107.793726
 H94     -C45     -C46     : 111.089936  H94     -C45     -H92     : 107.374596
 H94     -C45     -H93     : 107.619723  C45     -C46     -C36     : 110.989231
 C47     -C46     -C36     : 111.086461  C47     -C46     -C45     : 111.322334
 H95     -C46     -C36     : 108.945303  H95     -C46     -C45     : 107.198855
 H95     -C46     -C47     : 107.115307  H96     -C47     -C46     : 111.957177
 H97     -C47     -C46     : 110.849828  H97     -C47     -H96     : 107.803871
 H98     -C47     -C46     : 111.079362  H98     -C47     -H96     : 107.338962
 H98     -C47     -H97     : 107.616392  C49     -O48     -C32     : 125.347685
 H99     -C49     -O48     : 107.027922  H100    -C49     -O48     : 109.143780
 H100    -C49     -H99     : 109.474790  H101    -C49     -O48     : 109.028651
 H101    -C49     -H99     : 109.483317  H101    -C49     -H100    : 112.528252
 C51     -O50     -C29     : 124.495828  H102    -C51     -O50     : 107.612303
 H103    -C51     -O50     : 108.996383  H103    -C51     -H102    : 109.529437
 H104    -C51     -O50     : 109.191410  H104    -C51     -H102    : 108.912965
 H104    -C51     -H103    : 112.478480
 
  torsional angles:
 
 P1      -Pd2     -C4      -C5      : 169.055599
 P1      -Pd2     -C4      -C9      : -73.602749
 P1      -Pd2     -C4      -F10     :  55.167448
 P1      -Pd2     -C5      -C4      : -78.600628
 P1      -Pd2     -C5      -C6      : 165.156178
 P1      -Pd2     -C5      -H11     :  38.653112
 P1      -C15     -C16     -C17     : 169.923669
 P1      -C15     -C16     -H53     :  48.060819
 P1      -C15     -C16     -H54     : -69.634716
 P1      -C15     -C20     -C19     :-169.287675
 P1      -C15     -C20     -H61     : -47.131717
 P1      -C15     -C20     -H62     :  69.699520
 P1      -C21     -C22     -C23     :-176.567334
 P1      -C21     -C22     -H64     :  61.912220
 P1      -C21     -C22     -H65     : -55.607106
 P1      -C21     -C26     -C25     :-179.962271
 P1      -C21     -C26     -H72     : -58.000942
 P1      -C21     -C26     -H73     :  60.201212
 P1      -C27     -C28     -C29     : 171.983891
 P1      -C27     -C28     -C33     :  -8.641080
 P1      -C27     -C32     -C31     :-172.587532
 P1      -C27     -C32     -O48     :   6.146929
 Pd2     -P1      -C15     -C16     :  91.075667
 Pd2     -P1      -C15     -C20     : -34.974391
 Pd2     -P1      -C15     -H52     :-149.927766
 Pd2     -P1      -C21     -C22     : -60.723470
 Pd2     -P1      -C21     -C26     :  64.731663
 Pd2     -P1      -C21     -H63     :-176.931342
 Pd2     -P1      -C27     -C28     :   4.069141
 Pd2     -P1      -C27     -C32     : 174.400874
 Pd2     -C4      -C5      -C6      :  92.587904
 Pd2     -C4      -C5      -H11     :-101.496949
 Pd2     -C4      -C9      -C8      : -71.447828
 Pd2     -C4      -C9      -H14     : 109.519591
 Pd2     -C5      -C4      -C9      : -97.263592
 Pd2     -C5      -C4      -F10     : 102.336045
 Pd2     -C5      -C6      -C7      :  79.957824
 Pd2     -C5      -C6      -H12     :-103.239758
 Br3     -C7      -C6      -C5      :-178.920910
 Br3     -C7      -C6      -H12     :   4.331201
 Br3     -C7      -C8      -C9      : 177.060737
 Br3     -C7      -C8      -H13     :  -1.501514
 C4      -Pd2     -P1      -C15     : 108.625624
 C4      -Pd2     -P1      -C21     : -11.500759
 C4      -Pd2     -P1      -C27     :-127.206154
 C4      -Pd2     -C5      -C6      :-116.243194
 C4      -Pd2     -C5      -H11     : 117.253740
 C4      -C5      -C6      -C7      :   3.464907
 C4      -C5      -C6      -H12     :-179.732674
 C4      -C9      -C8      -C7      :   0.134173
 C4      -C9      -C8      -H13     : 178.698884
 C5      -Pd2     -P1      -C15     : 178.737961
 C5      -Pd2     -P1      -C21     :  58.611578
 C5      -Pd2     -P1      -C27     : -57.093817
 C5      -Pd2     -C4      -C9      : 117.341652
 C5      -Pd2     -C4      -F10     :-113.888151
 C5      -C4      -C9      -C8      :   2.913388
 C5      -C4      -C9      -H14     :-176.119193
 C5      -C6      -C7      -C8      :  -0.540470
 C6      -C5      -C4      -C9      :  -4.675688
 C6      -C5      -C4      -F10     :-165.076052
 C6      -C7      -C8      -C9      :  -1.325091
 C6      -C7      -C8      -H13     :-179.887342
 C7      -C6      -C5      -H11     :-162.447253
 C7      -C8      -C9      -H14     : 179.142122
 C8      -C7      -C6      -H12     :-177.288359
 C8      -C9      -C4      -F10     : 163.633244
 C9      -C4      -C5      -H11     : 161.239459
 F10     -C4      -C5      -H11     :   0.839096
 F10     -C4      -C9      -H14     : -15.399337
 H11     -C5      -C6      -H12     :  14.355165
 H13     -C8      -C9      -H14     :  -2.293167
 C15     -P1      -C21     -C22     : 176.560205
 C15     -P1      -C21     -C26     : -57.984661
 C15     -P1      -C21     -H63     :  60.352333
 C15     -P1      -C27     -C28     : 128.793160
 C15     -P1      -C27     -C32     : -60.875107
 C15     -C16     -C17     -C18     :  59.308658
 C15     -C16     -C17     -H55     :-179.274375
 C15     -C16     -C17     -H56     : -61.892393
 C15     -C20     -C19     -C18     : -58.192460
 C15     -C20     -C19     -H59     :-179.812198
 C15     -C20     -C19     -H60     :  62.882889
 C16     -C15     -P1      -C21     :-145.173781
 C16     -C15     -P1      -C27     : -34.107767
 C16     -C15     -C20     -C19     :  59.675156
 C16     -C15     -C20     -H61     :-178.168885
 C16     -C15     -C20     -H62     : -61.337649
 C16     -C17     -C18     -C19     : -55.119754
 C16     -C17     -C18     -H57     :-177.126106
 C16     -C17     -C18     -H58     :  65.433232
 C17     -C16     -C15     -C20     : -60.233288
 C17     -C16     -C15     -H52     :  53.463667
 C17     -C18     -C19     -C20     :  54.573566
 C17     -C18     -C19     -H59     : 176.336307
 C17     -C18     -C19     -H60     : -66.436546
 C18     -C17     -C16     -H53     :-177.216787
 C18     -C17     -C16     -H54     : -62.137696
 C18     -C19     -C20     -H61     : 178.348316
 C18     -C19     -C20     -H62     :  63.296121
 C19     -C18     -C17     -H55     :-176.700207
 C19     -C18     -C17     -H56     :  65.940081
 C19     -C20     -C15     -H52     : -55.646904
 C20     -C15     -P1      -C21     :  88.776161
 C20     -C15     -P1      -C27     :-160.157826
 C20     -C15     -C16     -H53     : 177.903862
 C20     -C15     -C16     -H54     :  60.208326
 C20     -C19     -C18     -H57     : 176.575196
 C20     -C19     -C18     -H58     : -65.992517
 C21     -P1      -C15     -H52     : -26.177214
 C21     -P1      -C27     -C28     :-117.635352
 C21     -P1      -C27     -C32     :  52.696382
 C21     -C22     -C23     -C24     : -57.021071
 C21     -C22     -C23     -H66     :  64.010740
 C21     -C22     -C23     -H67     :-178.571318
 C21     -C26     -C25     -C24     :  56.244359
 C21     -C26     -C25     -H70     : -64.733025
 C21     -C26     -C25     -H71     : 178.011177
 C22     -C21     -P1      -C27     :  60.397225
 C22     -C21     -C26     -C25     : -53.757089
 C22     -C21     -C26     -H72     :  68.204241
 C22     -C21     -C26     -H73     :-173.593606
 C22     -C23     -C24     -C25     :  56.989562
 C22     -C23     -C24     -H68     : -63.737169
 C22     -C23     -C24     -H69     : 178.478605
 C23     -C22     -C21     -C26     :  54.380734
 C23     -C22     -C21     -H63     : -61.210102
 C23     -C24     -C25     -C26     : -56.858653
 C23     -C24     -C25     -H70     :  64.168238
 C23     -C24     -C25     -H71     :-178.692164
 C24     -C23     -C22     -H64     :  64.096393
 C24     -C23     -C22     -H65     :-178.747869
 C24     -C25     -C26     -H72     : -65.522455
 C24     -C25     -C26     -H73     : 177.489555
 C25     -C24     -C23     -H66     : -63.955251
 C25     -C24     -C23     -H67     : 178.608293
 C25     -C26     -C21     -H63     :  62.168088
 C26     -C21     -P1      -C27     :-174.147642
 C26     -C21     -C22     -H64     : -67.139713
 C26     -C21     -C22     -H65     : 175.340961
 C26     -C25     -C24     -H68     :  63.881404
 C26     -C25     -C24     -H69     :-178.323655
 C27     -P1      -C15     -H52     :  84.888800
 C27     -P1      -C21     -H63     : -55.810647
 C27     -C28     -C29     -C30     :  -1.211674
 C27     -C28     -C29     -O50     : 174.704477
 C27     -C28     -C33     -C34     : 106.312724
 C27     -C28     -C33     -C38     : -74.793750
 C27     -C32     -C31     -C30     :   0.582654
 C27     -C32     -C31     -H75     :-179.685155
 C27     -C32     -O48     -C49     : 173.920676
 C28     -C27     -C32     -C31     :  -1.988453
 C28     -C27     -C32     -O48     : 176.746008
 C28     -C29     -C30     -C31     :  -0.160242
 C28     -C29     -C30     -H74     : 179.424135
 C28     -C29     -O50     -C51     :-169.338857
 C28     -C33     -C34     -C35     :-179.803181
 C28     -C33     -C34     -C43     :  -5.486577
 C28     -C33     -C38     -C37     :-179.918040
 C28     -C33     -C38     -C39     :  -7.851630
 C29     -C28     -C27     -C32     :   2.324640
 C29     -C28     -C33     -C34     : -74.295785
 C29     -C28     -C33     -C38     : 104.597740
 C29     -C30     -C31     -C32     :   0.485811
 C29     -C30     -C31     -H75     :-179.255501
 C29     -O50     -C51     -H102    : 173.917434
 C29     -O50     -C51     -H103    : -67.382869
 C29     -O50     -C51     -H104    :  55.845501
 C30     -C29     -C28     -C33     : 179.363309
 C30     -C29     -O50     -C51     :   6.496845
 C30     -C31     -C32     -O48     :-178.158510
 C31     -C30     -C29     -O50     :-176.065905
 C31     -C32     -O48     -C49     :  -7.380356
 C32     -C27     -C28     -C33     :-178.300331
 C32     -C31     -C30     -H74     :-179.113854
 C32     -O48     -C49     -H99     :-176.871282
 C32     -O48     -C49     -H100    :  64.743069
 C32     -O48     -C49     -H101    : -58.537095
 C33     -C28     -C29     -O50     :  -4.720540
 C33     -C34     -C35     -C36     :  -0.533899
 C33     -C34     -C35     -H76     : 178.627488
 C33     -C34     -C43     -C42     : 127.107180
 C33     -C34     -C43     -C44     :-111.353379
 C33     -C34     -C43     -H88     :   3.932119
 C33     -C38     -C37     -C36     :  -0.025920
 C33     -C38     -C37     -H77     : 178.350264
 C33     -C38     -C39     -C40     : -97.611058
 C33     -C38     -C39     -C41     : 139.820877
 C33     -C38     -C39     -H78     :  15.476161
 C34     -C33     -C38     -C37     :  -0.991216
 C34     -C33     -C38     -C39     : 171.075193
 C34     -C35     -C36     -C37     :  -0.479812
 C34     -C35     -C36     -C46     :-179.846713
 C34     -C43     -C42     -H85     :  72.797348
 C34     -C43     -C42     -H86     :-167.661808
 C34     -C43     -C42     -H87     : -47.005828
 C34     -C43     -C44     -H89     : -66.380744
 C34     -C43     -C44     -H90     : 173.491349
 C34     -C43     -C44     -H91     :  53.675279
 C35     -C34     -C33     -C38     :   1.255466
 C35     -C34     -C43     -C42     : -58.303934
 C35     -C34     -C43     -C44     :  63.235507
 C35     -C34     -C43     -H88     : 178.521005
 C35     -C36     -C37     -C38     :   0.764190
 C35     -C36     -C37     -H77     :-177.663878
 C35     -C36     -C46     -C45     : 116.075623
 C35     -C36     -C46     -C47     :-119.498530
 C35     -C36     -C46     -H95     :  -1.733846
 C36     -C35     -C34     -C43     :-175.475746
 C36     -C37     -C38     -C39     :-172.802318
 C36     -C46     -C45     -H92     :  63.944766
 C36     -C46     -C45     -H93     : -56.435995
 C36     -C46     -C45     -H94     :-176.046948
 C36     -C46     -C47     -H96     : -64.132907
 C36     -C46     -C47     -H97     :  56.286118
 C36     -C46     -C47     -H98     : 175.881942
 C37     -C36     -C35     -H76     :-179.664753
 C37     -C36     -C46     -C45     : -63.253806
 C37     -C36     -C46     -C47     :  61.172040
 C37     -C36     -C46     -H95     : 178.936725
 C37     -C38     -C39     -C40     :  74.800742
 C37     -C38     -C39     -C41     : -47.767323
 C37     -C38     -C39     -H78     :-172.112039
 C38     -C33     -C34     -C43     : 175.572070
 C38     -C37     -C36     -C46     :-179.870756
 C38     -C39     -C40     -H79     : -62.918265
 C38     -C39     -C40     -H80     :  57.197085
 C38     -C39     -C40     -H81     : 176.891982
 C38     -C39     -C41     -H82     :  71.409840
 C38     -C39     -C41     -H83     :-170.380230
 C38     -C39     -C41     -H84     : -49.526381
 C39     -C38     -C37     -H77     :   5.573866
 C40     -C39     -C41     -H82     : -50.657022
 C40     -C39     -C41     -H83     :  67.552907
 C40     -C39     -C41     -H84     :-171.593244
 C41     -C39     -C40     -H79     :  62.827879
 C41     -C39     -C40     -H80     :-177.056771
 C41     -C39     -C40     -H81     : -57.361874
 C42     -C43     -C44     -H89     :  58.354625
 C42     -C43     -C44     -H90     : -61.773282
 C42     -C43     -C44     -H91     : 178.410648
 C43     -C34     -C35     -H76     :   3.685641
 C44     -C43     -C42     -H85     : -50.406801
 C44     -C43     -C42     -H86     :  69.134043
 C44     -C43     -C42     -H87     :-170.209977
 C45     -C46     -C47     -H96     :  60.104192
 C45     -C46     -C47     -H97     :-179.476782
 C45     -C46     -C47     -H98     : -59.880958
 C46     -C36     -C35     -H76     :   0.968346
 C46     -C36     -C37     -H77     :   1.701176
 C47     -C46     -C45     -H92     : -60.347228
 C47     -C46     -C45     -H93     : 179.272011
 C47     -C46     -C45     -H94     :  59.661058
 O48     -C32     -C31     -H75     :   1.573680
 O50     -C29     -C30     -H74     :   3.518472
 H52     -C15     -C16     -H53     : -68.399183
 H52     -C15     -C16     -H54     : 173.905282
 H52     -C15     -C20     -H61     :  66.509054
 H52     -C15     -C20     -H62     :-176.659709
 H53     -C16     -C17     -H55     : -55.799821
 H53     -C16     -C17     -H56     :  61.582161
 H54     -C16     -C17     -H55     :  59.279271
 H54     -C16     -C17     -H56     : 176.661253
 H55     -C17     -C18     -H57     :  61.293441
 H55     -C17     -C18     -H58     : -56.147221
 H56     -C17     -C18     -H57     : -56.066271
 H56     -C17     -C18     -H58     :-173.506933
 H57     -C18     -C19     -H59     : -61.662063
 H57     -C18     -C19     -H60     :  55.565084
 H58     -C18     -C19     -H59     :  55.770224
 H58     -C18     -C19     -H60     : 172.997372
 H59     -C19     -C20     -H61     :  56.728577
 H59     -C19     -C20     -H62     : -58.323618
 H60     -C19     -C20     -H61     : -60.576336
 H60     -C19     -C20     -H62     :-175.628531
 H63     -C21     -C22     -H64     : 177.269451
 H63     -C21     -C22     -H65     :  59.750125
 H63     -C21     -C26     -H72     :-175.870582
 H63     -C21     -C26     -H73     : -57.668429
 H64     -C22     -C23     -H66     :-174.871796
 H64     -C22     -C23     -H67     : -57.453854
 H65     -C22     -C23     -H66     : -57.716058
 H65     -C22     -C23     -H67     :  59.701883
 H66     -C23     -C24     -H68     : 175.318019
 H66     -C23     -C24     -H69     :  57.533792
 H67     -C23     -C24     -H68     :  57.881563
 H67     -C23     -C24     -H69     : -59.902664
 H68     -C24     -C25     -H70     :-175.091706
 H68     -C24     -C25     -H71     : -57.952107
 H69     -C24     -C25     -H70     : -57.296765
 H69     -C24     -C25     -H71     :  59.842834
 H70     -C25     -C26     -H72     : 173.500161
 H70     -C25     -C26     -H73     :  56.512171
 H71     -C25     -C26     -H72     :  56.244363
 H71     -C25     -C26     -H73     : -60.743627
 H74     -C30     -C31     -H75     :   1.144834
 H78     -C39     -C40     -H79     : 179.158608
 H78     -C39     -C40     -H80     : -60.726042
 H78     -C39     -C40     -H81     :  58.968856
 H78     -C39     -C41     -H82     :-163.325785
 H78     -C39     -C41     -H83     : -45.115856
 H78     -C39     -C41     -H84     :  75.737993
 H85     -C42     -C43     -H88     :-162.702274
 H86     -C42     -C43     -H88     : -43.161430
 H87     -C42     -C43     -H88     :  77.494550
 H88     -C43     -C44     -H89     : 173.880183
 H88     -C43     -C44     -H90     :  53.752275
 H88     -C43     -C44     -H91     : -66.063794
 H92     -C45     -C46     -H95     :-177.188994
 H93     -C45     -C46     -H95     :  62.430244
 H94     -C45     -C46     -H95     : -57.180708
 H95     -C46     -C47     -H96     : 176.996873
 H95     -C46     -C47     -H97     : -62.584102
 H95     -C46     -C47     -H98     :  57.011722
 
  nuclear repulsion energy.......          7615.203678129 hartrees
  
  Detected an organometallic with only one TM atom. 
  
  
 
  Will use High-Quality Initial guess for organometallics
       including d-d repulsion (iguess=30)
 
 Non-default options chosen:
   SCF calculation type: DFT(b3pw91-d3)              
   DFT=Becke_3_Parameter/HF+Slater+Becke88+PW91+PW-GGAIIC (B3PW91-D3)
   Geometry will be optimized in redundant internal coordinates
   Solvation energy will be computed using PBF
     -solute cavity energy will not be included
     -surface area terms will not be included
   Vibrational frequencies and related properties will be computed
      from analytic second derivatives
   IR intensities will be computed
   Thermochemical properties will be computed
   Maximum number of geometry steps: 100
   Scaling standard convergence criteria by a factor of   5.00
   Solvent: benzene                                                         
   Internal dielectric constant:    1.000
   Continuum dielectric constant:   2.283
   Solvent probe molecule radius:   2.600
  
 Non-default print settings:
     11=  2
  
 Temporary integer options set:
     21= -1  73=  2
  
  atom       vdw   vdw2    cov     mass  grid  daf  charge   basis
  P1        2.147  2.074  1.060   30.974    Y    Y      Y    ps_6-31g*
  Pd2       1.450  1.450  1.280  105.903    Y    Y      Y    lacv3p*
  Br3       2.095  2.095  1.140   78.918    Y    Y      Y    lav3p*
  C4        1.949  1.900  0.770   12.000    Y    Y      Y    ps_6-31g*
  C5        1.949  1.900  0.770   12.000    Y    Y      Y    ps_6-31g*
  C6        1.949  1.900  0.770   12.000    Y    Y      Y    ps_6-31g*
  C7        1.949  1.900  0.770   12.000    Y    Y      Y    ps_6-31g*
  C8        1.949  1.900  0.770   12.000    Y    Y      Y    ps_6-31g*
  C9        1.949  1.900  0.770   12.000    Y    Y      Y    ps_6-31g*
  F10       1.736  1.682  0.720   18.998    Y    Y      Y    ps_6-31g*
  H11       1.597  1.150  0.320    1.008    Y    Y      Y    ps_6-31g*
  H12       1.597  1.150  0.320    1.008    Y    Y      Y    ps_6-31g*
  H13       1.597  1.150  0.320    1.008    Y    Y      Y    ps_6-31g*
  H14       1.597  1.150  0.320    1.008    Y    Y      Y    ps_6-31g*
  C15       1.949  1.900  0.770   12.000    Y    Y      Y    ps_6-31g*
  C16       1.949  1.900  0.770   12.000    Y    Y      Y    ps_6-31g*
  C17       1.949  1.900  0.770   12.000    Y    Y      Y    ps_6-31g*
  C18       1.949  1.900  0.770   12.000    Y    Y      Y    ps_6-31g*
  C19       1.949  1.900  0.770   12.000    Y    Y      Y    ps_6-31g*
  C20       1.949  1.900  0.770   12.000    Y    Y      Y    ps_6-31g*
  C21       1.949  1.900  0.770   12.000    Y    Y      Y    ps_6-31g*
  C22       1.949  1.900  0.770   12.000    Y    Y      Y    ps_6-31g*
  C23       1.949  1.900  0.770   12.000    Y    Y      Y    ps_6-31g*
  C24       1.949  1.900  0.770   12.000    Y    Y      Y    ps_6-31g*
  C25       1.949  1.900  0.770   12.000    Y    Y      Y    ps_6-31g*
  C26       1.949  1.900  0.770   12.000    Y    Y      Y    ps_6-31g*
  C27       1.949  1.900  0.770   12.000    Y    Y      Y    ps_6-31g*
  C28       1.949  1.900  0.770   12.000    Y    Y      Y    ps_6-31g*
  C29       1.949  1.900  0.770   12.000    Y    Y      Y    ps_6-31g*
  C30       1.949  1.900  0.770   12.000    Y    Y      Y    ps_6-31g*
  C31       1.949  1.900  0.770   12.000    Y    Y      Y    ps_6-31g*
  C32       1.949  1.900  0.770   12.000    Y    Y      Y    ps_6-31g*
  C33       1.949  1.900  0.770   12.000    Y    Y      Y    ps_6-31g*
  C34       1.949  1.900  0.770   12.000    Y    Y      Y    ps_6-31g*
  C35       1.949  1.900  0.770   12.000    Y    Y      Y    ps_6-31g*
  C36       1.949  1.900  0.770   12.000    Y    Y      Y    ps_6-31g*
  C37       1.949  1.900  0.770   12.000    Y    Y      Y    ps_6-31g*
  C38       1.949  1.900  0.770   12.000    Y    Y      Y    ps_6-31g*
  C39       1.949  1.900  0.770   12.000    Y    Y      Y    ps_6-31g*
  C40       1.949  1.900  0.770   12.000    Y    Y      Y    ps_6-31g*
  C41       1.949  1.900  0.770   12.000    Y    Y      Y    ps_6-31g*
  C42       1.949  1.900  0.770   12.000    Y    Y      Y    ps_6-31g*
  C43       1.949  1.900  0.770   12.000    Y    Y      Y    ps_6-31g*
  C44       1.949  1.900  0.770   12.000    Y    Y      Y    ps_6-31g*
  C45       1.949  1.900  0.770   12.000    Y    Y      Y    ps_6-31g*
  C46       1.949  1.900  0.770   12.000    Y    Y      Y    ps_6-31g*
  C47       1.949  1.900  0.770   12.000    Y    Y      Y    ps_6-31g*
  O48       1.702  1.600  0.730   15.995    Y    Y      Y    ps_6-31g*
  C49       1.949  1.900  0.770   12.000    Y    Y      Y    ps_6-31g*
  O50       1.702  1.600  0.730   15.995    Y    Y      Y    ps_6-31g*
  C51       1.949  1.900  0.770   12.000    Y    Y      Y    ps_6-31g*
  H52       1.597  1.150  0.320    1.008    Y    Y      Y    ps_6-31g*
  H53       1.597  1.150  0.320    1.008    Y    Y      Y    ps_6-31g*
  H54       1.597  1.150  0.320    1.008    Y    Y      Y    ps_6-31g*
  H55       1.597  1.150  0.320    1.008    Y    Y      Y    ps_6-31g*
  H56       1.597  1.150  0.320    1.008    Y    Y      Y    ps_6-31g*
  H57       1.597  1.150  0.320    1.008    Y    Y      Y    ps_6-31g*
  H58       1.597  1.150  0.320    1.008    Y    Y      Y    ps_6-31g*
  H59       1.597  1.150  0.320    1.008    Y    Y      Y    ps_6-31g*
  H60       1.597  1.150  0.320    1.008    Y    Y      Y    ps_6-31g*
  H61       1.597  1.150  0.320    1.008    Y    Y      Y    ps_6-31g*
  H62       1.597  1.150  0.320    1.008    Y    Y      Y    ps_6-31g*
  H63       1.597  1.150  0.320    1.008    Y    Y      Y    ps_6-31g*
  H64       1.597  1.150  0.320    1.008    Y    Y      Y    ps_6-31g*
  H65       1.597  1.150  0.320    1.008    Y    Y      Y    ps_6-31g*
  H66       1.597  1.150  0.320    1.008    Y    Y      Y    ps_6-31g*
  H67       1.597  1.150  0.320    1.008    Y    Y      Y    ps_6-31g*
  H68       1.597  1.150  0.320    1.008    Y    Y      Y    ps_6-31g*
  H69       1.597  1.150  0.320    1.008    Y    Y      Y    ps_6-31g*
  H70       1.597  1.150  0.320    1.008    Y    Y      Y    ps_6-31g*
  H71       1.597  1.150  0.320    1.008    Y    Y      Y    ps_6-31g*
  H72       1.597  1.150  0.320    1.008    Y    Y      Y    ps_6-31g*
  H73       1.597  1.150  0.320    1.008    Y    Y      Y    ps_6-31g*
  H74       1.597  1.150  0.320    1.008    Y    Y      Y    ps_6-31g*
  H75       1.597  1.150  0.320    1.008    Y    Y      Y    ps_6-31g*
  H76       1.597  1.150  0.320    1.008    Y    Y      Y    ps_6-31g*
  H77       1.597  1.150  0.320    1.008    Y    Y      Y    ps_6-31g*
  H78       1.597  1.150  0.320    1.008    Y    Y      Y    ps_6-31g*
  H79       1.597  1.150  0.320    1.008    Y    Y      Y    ps_6-31g*
  H80       1.597  1.150  0.320    1.008    Y    Y      Y    ps_6-31g*
  H81       1.597  1.150  0.320    1.008    Y    Y      Y    ps_6-31g*
  H82       1.597  1.150  0.320    1.008    Y    Y      Y    ps_6-31g*
  H83       1.597  1.150  0.320    1.008    Y    Y      Y    ps_6-31g*
  H84       1.597  1.150  0.320    1.008    Y    Y      Y    ps_6-31g*
  H85       1.597  1.150  0.320    1.008    Y    Y      Y    ps_6-31g*
  H86       1.597  1.150  0.320    1.008    Y    Y      Y    ps_6-31g*
  H87       1.597  1.150  0.320    1.008    Y    Y      Y    ps_6-31g*
  H88       1.597  1.150  0.320    1.008    Y    Y      Y    ps_6-31g*
  H89       1.597  1.150  0.320    1.008    Y    Y      Y    ps_6-31g*
  H90       1.597  1.150  0.320    1.008    Y    Y      Y    ps_6-31g*
  H91       1.597  1.150  0.320    1.008    Y    Y      Y    ps_6-31g*
  H92       1.597  1.150  0.320    1.008    Y    Y      Y    ps_6-31g*
  H93       1.597  1.150  0.320    1.008    Y    Y      Y    ps_6-31g*
  H94       1.597  1.150  0.320    1.008    Y    Y      Y    ps_6-31g*
  H95       1.597  1.150  0.320    1.008    Y    Y      Y    ps_6-31g*
  H96       1.597  1.150  0.320    1.008    Y    Y      Y    ps_6-31g*
  H97       1.597  1.150  0.320    1.008    Y    Y      Y    ps_6-31g*
  H98       1.597  1.150  0.320    1.008    Y    Y      Y    ps_6-31g*
  H99       1.597  1.150  0.320    1.008    Y    Y      Y    ps_6-31g*
  H100      1.597  1.150  0.320    1.008    Y    Y      Y    ps_6-31g*
  H101      1.597  1.150  0.320    1.008    Y    Y      Y    ps_6-31g*
  H102      1.597  1.150  0.320    1.008    Y    Y      Y    ps_6-31g*
  H103      1.597  1.150  0.320    1.008    Y    Y      Y    ps_6-31g*
  H104      1.597  1.150  0.320    1.008    Y    Y      Y    ps_6-31g*
 
  atom      formal  2spin      esp    mulk    frag
  P1           0       0        Y    0.000       0
  Pd2          0       0        Y    0.000       0
  Br3          0       0        Y    0.000       0
  
  end of program pre
   
 Time(pre)  user:       1.078  user+sys:       1.078  wallclock:       1.430
  
  start of program onee
  
  smallest eigenvalue of S:    2.975E-04
  number of canonical orbitals.....          785
  end of program onee
   
 Time(onee)  user:      13.946  user+sys:      13.946  wallclock:      10.237
  
  start of program hfig
  
  initial wavefunction generated automatically from atomic wavefunctions
  Only one possible d-orb occupation 
  Skip d-d repulsion considerations 
 
  Irreducible     Total no   No of occupied orbitals 
  representation  orbitals   Shell_1  Shell_2    ...
  No Symm          785        184
  ------------------------
  Orbital occupation/shell    1.000
 
  end of program hfig
   
 Time(hfig)  user:       1.643  user+sys:       1.643  wallclock:       1.656
  
  start of program probe
  
  end of program probe
   
 Time(probe)  user:       0.926  user+sys:       0.926  wallclock:       0.777
  
  start of program grid
  
   grid     grid set  grid #  grid sym
  ------    --------  ------  --------
  coarse        0        0        1
  medium        2        1        1
  fine          0        0        1
  ultrafine     4        2        1
  charge       -1        3        1
  gradient      4        2        1
  density       0        0        1
  DFT-fine    -11        4        1
  DFT-med.    -10        5        1
  DFT-grad    -12        6        1
  DFT-der2     -8        7        1
  DFT-cphf     -9        8        1
  LMP2-enrg     4        2        1
  LMP2-grad     2        1        1
  DFT-cphf2   -15        9        1
  PBF-dens      0        0        1
  plotting      0        0        1
  Rel-grad    -17        0        1
  
  number of gridpoints: 
     atom           P1         Pd2         Br3          C4          C5          C6          C7
  grid # 1         601         365         511          79          89          92          92
  grid # 2         430         336         483         331         314         313         390
  grid # 3           7         258         438          13           7           7          30
  grid # 4        8714        8714        8714        8714        8714        8714        8714
  grid # 5        1192        1192        1192        1192        1192        1192        1192
  grid # 6        9132        9132        9132        5922        5922        5922        5922
  grid # 7       23034       32968       11582       13950       13950       13950       13950
  grid # 8         722        1150         694         748         748         748         748
  grid # 9         366        2198         358         394         394         394         394
   
  number of gridpoints: 
     atom           C8          C9         F10         H11         H12         H13         H14
  grid # 1          95          94         568          95          99         117         114
  grid # 2         323         324         547         408         399         466         462
  grid # 3          34          29         171          47          59         361         337
  grid # 4        8714        8714        8714        8714        8714        8714        8714
  grid # 5        1192        1192        1192        1192        1192        1192        1192
  grid # 6        5922        5922        5922        5922        5922        5922        5922
  grid # 7       13950       13950       23190       15206       15206       15206       15206
  grid # 8         748         748         770         786         786         786         786
  grid # 9         394         394         420         420         420         420         420
   
  number of gridpoints: 
     atom          C15         C16         C17         C18         C19         C20         C21
  grid # 1          79          92          92          92          92          91          79
  grid # 2         329         278         281         281         283         277         322
  grid # 3           6           6           6           6           6           6           6
  grid # 4        8714        8714        8714        8714        8714        8714        8714
  grid # 5        1192        1192        1192        1192        1192        1192        1192
  grid # 6        5922        5922        5922        5922        5922        5922        5922
  grid # 7       13950       13950       13950       13950       13950       13950       13950
  grid # 8         748         748         748         748         748         748         748
  grid # 9         394         394         394         394         394         394         394
   
  number of gridpoints: 
     atom          C22         C23         C24         C25         C26         C27         C28
  grid # 1          90          92          92          92          90          90          98
  grid # 2         280         280         277         283         278         381         352
  grid # 3           6           6           6           6           6           7           6
  grid # 4        8714        8714        8714        8714        8714        8714        8714
  grid # 5        1192        1192        1192        1192        1192        1192        1192
  grid # 6        5922        5922        5922        5922        5922        5922        5922
  grid # 7       13950       13950       13950       13950       13950       13950       13950
  grid # 8         748         748         748         748         748         748         748
  grid # 9         394         394         394         394         394         394         394
   
  number of gridpoints: 
     atom          C29         C30         C31         C32         C33         C34         C35
  grid # 1          92          96          95          93          97          97          93
  grid # 2         345         326         326         344         350         362         325
  grid # 3          15          32          32          14           8          12          21
  grid # 4        8714        8714        8714        8714        8714        8714        8714
  grid # 5        1192        1192        1192        1192        1192        1192        1192
  grid # 6        5922        5922        5922        5922        5922        5922        5922
  grid # 7       13950       13950       13950       13950       13950       13950       13950
  grid # 8         748         748         748         748         748         748         748
  grid # 9         394         394         394         394         394         394         394
   
  number of gridpoints: 
     atom          C36         C37         C38         C39         C40         C41         C42
  grid # 1          97          92          98          91          82          81          83
  grid # 2         343         325         360         308         240         243         238
  grid # 3          11          16          10           6           6           6           6
  grid # 4        8714        8714        8714        8714        8714        8714        8714
  grid # 5        1192        1192        1192        1192        1192        1192        1192
  grid # 6        5922        5922        5922        5922        5922        5922        5922
  grid # 7       13950       13950       13950       13950       13950       13950       13950
  grid # 8         748         748         748         748         748         748         748
  grid # 9         394         394         394         394         394         394         394
   
  number of gridpoints: 
     atom          C43         C44         C45         C46         C47         O48         C49
  grid # 1          91          80          81          91          81         115          76
  grid # 2         308         246         247         304         246         434         226
  grid # 3           6           6           6           6           6          11           6
  grid # 4        8714        8714        8714        8714        8714        8714        8714
  grid # 5        1192        1192        1192        1192        1192        1192        1192
  grid # 6        5922        5922        5922        5922        5922        5922        5922
  grid # 7       13950       13950       13950       13950       13950       23382       13950
  grid # 8         748         748         748         748         748         774         748
  grid # 9         394         394         394         394         394         416         394
   
  number of gridpoints: 
     atom          O50         C51         H52         H53         H54         H55         H56
  grid # 1         119          76          99         106         103         112         110
  grid # 2         453         229         423         439         414         457         447
  grid # 3          44           6          71         148          39         320         232
  grid # 4        8714        8714        8714        8714        8714        8714        8714
  grid # 5        1192        1192        1192        1192        1192        1192        1192
  grid # 6        5922        5922        5922        5922        5922        5922        5922
  grid # 7       23382       13950       15206       15206       15206       15206       15206
  grid # 8         774         748         786         786         786         786         786
  grid # 9         416         394         420         420         420         420         420
   
  number of gridpoints: 
     atom          H57         H58         H59         H60         H61         H62         H63
  grid # 1         112         110         112         110         103         106          99
  grid # 2         458         454         457         451         431         435         413
  grid # 3         331         238         317         247         128          94          63
  grid # 4        8714        8714        8714        8714        8714        8714        8714
  grid # 5        1192        1192        1192        1192        1192        1192        1192
  grid # 6        5922        5922        5922        5922        5922        5922        5922
  grid # 7       15206       15206       15206       15206       15206       15206       15206
  grid # 8         786         786         786         786         786         786         786
  grid # 9         420         420         420         420         420         420         420
   
  number of gridpoints: 
     atom          H64         H65         H66         H67         H68         H69         H70
  grid # 1          96         102         110         111         109         112         110
  grid # 2         402         426         452         452         454         459         451
  grid # 3          37         100         243         269         243         334         251
  grid # 4        8714        8714        8714        8714        8714        8714        8714
  grid # 5        1192        1192        1192        1192        1192        1192        1192
  grid # 6        5922        5922        5922        5922        5922        5922        5922
  grid # 7       15206       15206       15206       15206       15206       15206       15206
  grid # 8         786         786         786         786         786         786         786
  grid # 9         420         420         420         420         420         420         420
   
  number of gridpoints: 
     atom          H71         H72         H73         H74         H75         H76         H77
  grid # 1         112         104         103         112         113         105         103
  grid # 2         458         440         433         447         446         425         416
  grid # 3         327         112         140         259         261         117          52
  grid # 4        8714        8714        8714        8714        8714        8714        8714
  grid # 5        1192        1192        1192        1192        1192        1192        1192
  grid # 6        5922        5922        5922        5922        5922        5922        5922
  grid # 7       15206       15206       15206       15206       15206       15206       15206
  grid # 8         786         786         786         786         786         786         786
  grid # 9         420         420         420         420         420         420         420
   
  number of gridpoints: 
     atom          H78         H79         H80         H81         H82         H83         H84
  grid # 1         105         107         107         110         104         108         103
  grid # 2         429         446         445         455         437         444         430
  grid # 3          87         247         220         320         202         235          86
  grid # 4        8714        8714        8714        8714        8714        8714        8714
  grid # 5        1192        1192        1192        1192        1192        1192        1192
  grid # 6        5922        5922        5922        5922        5922        5922        5922
  grid # 7       15206       15206       15206       15206       15206       15206       15206
  grid # 8         786         786         786         786         786         786         786
  grid # 9         420         420         420         420         420         420         420
   
  number of gridpoints: 
     atom          H85         H86         H87         H88         H89         H90         H91
  grid # 1         105         108         109         107         104         107          96
  grid # 2         440         453         448         429         436         446         399
  grid # 3         242         324         257         117         195         243          37
  grid # 4        8714        8714        8714        8714        8714        8714        8714
  grid # 5        1192        1192        1192        1192        1192        1192        1192
  grid # 6        5922        5922        5922        5922        5922        5922        5922
  grid # 7       15206       15206       15206       15206       15206       15206       15206
  grid # 8         786         786         786         786         786         786         786
  grid # 9         420         420         420         420         420         420         420
   
  number of gridpoints: 
     atom          H92         H93         H94         H95         H96         H97         H98
  grid # 1         108         111         110         108          99          98         109
  grid # 2         445         459         456         442         402         413         456
  grid # 3         238         340         324         214         124         132         315
  grid # 4        8714        8714        8714        8714        8714        8714        8714
  grid # 5        1192        1192        1192        1192        1192        1192        1192
  grid # 6        5922        5922        5922        5922        5922        5922        5922
  grid # 7       15206       15206       15206       15206       15206       15206       15206
  grid # 8         786         786         786         786         786         786         786
  grid # 9         420         420         420         420         420         420         420
   
  number of gridpoints: 
     atom          H99        H100        H101        H102        H103        H104       total
  grid # 1         110         111         112         112         111         111       12043
  grid # 2         458         451         449         463         451         449       40207
  grid # 3         334         304         315         367         314         304       13585
  grid # 4        8714        8714        8714        8714        8714        8714      906256
  grid # 5        1192        1192        1192        1192        1192        1192      123968
  grid # 6        5922        5922        5922        5922        5922        5922      625518
  grid # 7       15206       15206       15206       15206       15206       15206     1576230
  grid # 8         786         786         786         786         786         786       80354
  grid # 9         420         420         420         420         420         420       44268
   
  end of program grid
   
 Time(grid)  user:     827.344  user+sys:     827.344  wallclock:     418.420
  
  start of program rwr
  
  end of program rwr
   
 Time(rwr)  user:      29.865  user+sys:      29.865  wallclock:      37.675
  
  start of program scf
  
 number of electrons..........        368
 number of alpha electrons....        184
 number of beta electrons.....        184
 number of orbitals, total....        785
 number of doubly-occ'd orbs..        184
 number of open shell orbs....          0
 number of occupied orbitals..        184
 number of virtual orbitals...        601
 number of hamiltonians.......          1
 number of shells.............          1
 SCF type: DFT=Becke_3_Parameter/HF+Slater+Becke88+PW91+PW-GGAIIC (B3PW91-D3)
 Energy computed using pseudospectral method.
 Convergence Criterion:
    Energy (econv):       1.00E-05
    RMS density (dconv):  5.00E-06
  
       i  u  d  i  g                   
       t  p  i  c  r                                 RMS    maximum
       e  d  i  u  i                       energy  density   DIIS  
       r  t  s  t  d       total energy    change  change    error 
  
etot    1  N  N  5  M   -2321.83703074514           1.9E-03  1.7E-01
etot    2  Y  Y  6  M   -2325.90147216351  4.1E+00  2.7E-03  1.3E-01
etot    3  Y  Y  6  M   -2326.69308467937  7.9E-01  1.4E-03  4.1E-02
etot    4  N  Y  2  U   -2327.29679124728  6.0E-01  8.8E-04  4.9E-02
etot    5  Y  Y  6  M   -2327.46330744181  1.7E-01  4.5E-04  3.0E-02
etot    6  N  Y  2  U   -2327.47677259132  1.3E-02  4.9E-04  1.6E-02
etot    7  Y  Y  6  M   -2327.47832503860  1.6E-03  1.3E-04  5.9E-03
etot    8  Y  Y  6  M   -2327.48529346434  7.0E-03  2.8E-05  8.5E-04
etot    9  N  Y  2  U   -2327.48661810112  1.3E-03  9.0E-06  2.4E-04
etot   10  N  Y  2  U   -2327.48663470438  1.7E-05  4.5E-06  1.4E-04
etot   11  N  N  2  U   -2327.48663933307  4.6E-06  0.0E+00  0.0E+00
 
  Computing the dispersion energy correction and its gradients...
  
  
 Energy components, in hartrees:
   (A)  Nuclear repulsion............    7615.20367812857
   (E)  Total one-electron terms.....  -18406.15620762472
   (F)    Electron-nuclear...........  -20631.00095123957
   (H)    Kinetic....................    2224.84474361485
   (I)  Total two-electron terms.....    8463.46589016309
   (J)    Coulomb....................    8773.11917084940
   (K)    Exchange+Correlation.......    -309.65328068631
   (L)  Electronic energy............   -9942.69031746163  (E+I)
   (N0) D3 correction................      -0.20095365961
   (N)  Total energy.................   -2327.68759299268  (A+L+N0)
   (O)  Gas phase energy.............   -2327.68759299268
  
 SCFE: SCF energy: DFT(b3pw91-d3)     -2327.68759299268 hartrees   iterations:  11
  
 
 HOMO energy:    -0.15464
 LUMO energy:    -0.03386
 
  Orbital energies (hartrees): 
   -77.04337   -24.67047   -19.17730   -19.16745   -10.25024   -10.24580
   -10.24210   -10.24120   -10.23405   -10.21143   -10.19530   -10.18995
   -10.18564   -10.18404   -10.17922   -10.17831   -10.17706   -10.17553
   -10.17163   -10.17135   -10.17030   -10.16998   -10.16834   -10.16828
   -10.16753   -10.16669   -10.16059   -10.16022   -10.15977   -10.15963
   -10.15905   -10.15804   -10.15769   -10.15716   -10.15688   -10.15683
   -10.15649   -10.15585   -10.15383   -10.15367   -10.15224   -10.15135
   -10.15079   -10.14249   -10.13877    -6.54674    -4.70501    -4.70411
    -4.70093    -3.25814    -1.99669    -1.97768    -1.96970    -1.19906
    -1.08452    -1.07230    -0.87833    -0.86473    -0.85508    -0.83309
    -0.82487    -0.81682    -0.80588    -0.78610    -0.78204    -0.78041
    -0.76726    -0.75679    -0.75175    -0.73504    -0.73415    -0.73276
    -0.73013    -0.71565    -0.71088    -0.70601    -0.68671    -0.68129
    -0.67264    -0.66721    -0.65871    -0.63393    -0.62385    -0.61730
    -0.60529    -0.59883    -0.59636    -0.59459    -0.59233    -0.58630
    -0.58415    -0.55910    -0.55143    -0.54481    -0.54256    -0.53362
    -0.53287    -0.52535    -0.52024    -0.51365    -0.49352    -0.48935
    -0.48741    -0.48372    -0.47461    -0.47179    -0.46741    -0.46620
    -0.45888    -0.45669    -0.45306    -0.44346    -0.44103    -0.43907
    -0.43739    -0.43462    -0.43196    -0.43119    -0.42895    -0.42765
    -0.42447    -0.42224    -0.42063    -0.41986    -0.41871    -0.41092
    -0.40566    -0.40116    -0.40093    -0.39691    -0.39562    -0.38821
    -0.38547    -0.38222    -0.37381    -0.37299    -0.37183    -0.37024
    -0.36882    -0.36766    -0.36520    -0.36257    -0.36027    -0.35697
    -0.35337    -0.35307    -0.34908    -0.34601    -0.34429    -0.33934
    -0.33918    -0.33591    -0.33341    -0.33058    -0.32944    -0.32881
    -0.32367    -0.32171    -0.31993    -0.31401    -0.31260    -0.30865
    -0.30525    -0.30419    -0.30280    -0.30063    -0.29706    -0.29077
    -0.28845    -0.28676    -0.27842    -0.27554    -0.27267    -0.25824
    -0.24575    -0.24010    -0.23386    -0.22433    -0.21211    -0.20517
    -0.19524    -0.18922    -0.17608    -0.15464    -0.03386    -0.01120
    -0.00961     0.00028     0.00498     0.00897     0.01409     0.04849
     0.05329     0.05869
 
  end of program scf
   
 Time(scf)  user:     778.491  user+sys:     778.491  wallclock:     415.680
  
  start of program der1a
  
  end of program der1a
   
 Time(der1a)  user:      44.468  user+sys:      44.468  wallclock:      23.471
  
  start of program rwr
  
  end of program rwr
   
 Time(rwr)  user:      35.393  user+sys:      35.393  wallclock:      46.624
  
  start of program der1b
  
   
  forces (hartrees/bohr) : total     
   
 atom  label           x              y              z
 ---- --------   -------------  -------------  -------------
    1 P1          2.714443E-02  -1.496903E-02   6.091483E-02
    2 Pd2        -5.125994E-03  -5.074285E-03  -8.440539E-03
    3 Br3        -1.408226E-03  -3.304870E-04  -3.770139E-04
    4 C4          2.350048E-03   1.876618E-04   4.785319E-03
    5 C5          3.696146E-03   2.595436E-02  -1.945526E-02
    6 C6          2.846816E-02   1.926978E-02  -2.649921E-02
    7 C7         -3.012608E-03  -3.069174E-03  -3.354569E-03
    8 C8         -1.366561E-03   2.277380E-03   2.559120E-04
    9 C9          1.093459E-03   8.186172E-04   3.382192E-04
   10 F10         1.944906E-03  -6.609576E-04  -2.665225E-04
   11 H11         5.440245E-03   1.630715E-02  -1.488174E-02
   12 H12         1.187270E-02   2.054256E-02  -2.261614E-02
   13 H13        -7.486815E-04  -5.366018E-04   4.075651E-04
   14 H14        -3.061489E-04  -6.611201E-05   2.566038E-04
   15 C15         1.241400E-02   3.990320E-03  -2.128868E-02
   16 C16        -1.009136E-02  -1.219290E-02  -3.882407E-03
   17 C17         3.877215E-03  -4.401283E-03  -3.405699E-03
   18 C18         9.627304E-03   2.155127E-04  -3.284433E-03
   19 C19         4.636773E-03   4.113526E-03  -2.391252E-04
   20 C20        -5.342019E-03   1.092930E-02   1.486943E-02
   21 C21        -2.102351E-02   3.465546E-02  -3.584671E-02
   22 C22        -5.956342E-03  -6.581238E-03   2.153378E-03
   23 C23        -6.163581E-03   9.322470E-04   2.014890E-05
   24 C24        -5.298406E-03   7.944340E-03  -2.913996E-03
   25 C25         5.844099E-04   6.385231E-03  -1.226558E-03
   26 C26         1.456996E-02   1.328755E-03   4.634643E-03
   27 C27        -2.286354E-03   3.955568E-03  -1.652516E-02
   28 C28        -2.558362E-03  -2.410968E-03  -4.181163E-02
   29 C29        -1.258095E-03  -1.319723E-02  -2.784244E-02
   30 C30        -2.463557E-03  -2.032211E-03  -5.216204E-03
   31 C31        -2.357746E-03  -1.315745E-03  -7.515930E-03
   32 C32        -1.901504E-02  -2.583477E-02  -1.728951E-02
   33 C33         1.091630E-03   6.431712E-03   5.808262E-02
   34 C34         1.275920E-04   4.232916E-03   1.003873E-02
   35 C35        -4.859363E-03  -8.672879E-03   1.696912E-03
   36 C36        -1.055462E-02  -1.287371E-02  -1.522706E-02
   37 C37        -2.153143E-03  -5.816406E-03   5.347355E-03
   38 C38         2.663435E-03  -2.769998E-03   1.094950E-02
   39 C39         2.316756E-03  -8.986360E-03  -1.072838E-02
   40 C40        -4.459916E-03  -1.408756E-02  -5.721276E-04
   41 C41         7.676231E-03   6.196417E-03   1.967768E-03
   42 C42        -7.866166E-03  -1.081699E-02  -5.663028E-04
   43 C43        -4.185915E-03   9.936034E-03  -8.580682E-03
   44 C44         3.183710E-03   1.160279E-02   6.881022E-03
   45 C45        -2.659284E-03  -1.049765E-02   4.407061E-03
   46 C46        -2.528094E-03  -2.190070E-04   8.869718E-03
   47 C47        -1.062853E-02  -9.961632E-03   4.063634E-02
   48 O48         1.561438E-02   6.944553E-03   1.796698E-02
   49 C49        -5.436508E-03  -8.648150E-03   6.512259E-04
   50 O50         7.748530E-03   1.204417E-02   2.630294E-02
   51 C51         3.012275E-03   6.077589E-03  -8.396759E-03
   52 H52         2.095170E-03  -6.986587E-03   2.808850E-03
   53 H53         3.568549E-03   6.887184E-03   4.963913E-03
   54 H54        -3.685140E-03   7.186561E-03  -7.996310E-03
   55 H55        -5.449725E-03   9.783066E-03   1.275516E-03
   56 H56         1.731937E-03  -4.088019E-03   8.640240E-03
   57 H57        -8.423340E-03  -2.101411E-03   6.941627E-03
   58 H58        -2.733065E-03   4.864344E-03  -8.511154E-03
   59 H59        -8.624013E-03  -4.969547E-03  -6.374535E-03
   60 H60         1.779858E-03  -4.841177E-03   7.714197E-03
   61 H61         2.562633E-03  -1.064588E-02  -1.331246E-03
   62 H62        -4.201868E-03   3.551292E-03  -7.208925E-03
   63 H63        -1.427278E-03   6.099517E-03   1.103729E-02
   64 H64         4.776920E-03   1.945821E-03  -1.905765E-02
   65 H65         5.150265E-03   8.513408E-03   6.303814E-03
   66 H66         2.614102E-05   1.634868E-03   9.299231E-03
   67 H67         1.064016E-02  -1.875040E-03  -4.065851E-03
   68 H68         3.048066E-04  -1.961230E-03  -9.910901E-03
   69 H69         5.397314E-03  -7.495016E-03   6.285849E-03
   70 H70        -3.699099E-04   9.913667E-04   9.527435E-03
   71 H71        -3.357641E-03  -1.066648E-02  -3.372674E-03
   72 H72         8.243949E-04  -2.161581E-03  -8.949253E-03
   73 H73        -8.292921E-03  -1.246219E-03   6.565346E-03
   74 H74         5.211718E-03   5.662891E-03   7.345108E-03
   75 H75         2.470689E-03   1.716588E-03   9.549783E-03
   76 H76         4.484060E-03  -1.556718E-03  -6.847478E-03
   77 H77        -3.469486E-03   2.696780E-03  -7.849148E-03
   78 H78         9.284160E-05   7.730371E-03   8.916029E-03
   79 H79        -1.280342E-04   4.407935E-03  -9.436229E-03
   80 H80         9.276886E-03   3.818503E-03   5.360586E-03
   81 H81        -6.472656E-03   6.513679E-03   4.939772E-03
   82 H82        -4.556134E-03   4.071052E-03  -8.408273E-03
   83 H83        -9.258210E-03   3.780660E-03   3.987031E-03
   84 H84        -2.112309E-03  -9.744221E-03  -4.830812E-04
   85 H85         4.033071E-03   1.358000E-04  -9.721559E-03
   86 H86         9.520173E-03  -2.719602E-03   5.330547E-03
   87 H87         1.236415E-03   9.120549E-03  -1.796960E-03
   88 H88         2.529152E-03  -8.706191E-03   9.109311E-03
   89 H89         1.256275E-03  -3.549006E-03  -1.026568E-02
   90 H90         7.013028E-03  -6.901777E-03   3.228715E-03
   91 H91        -1.486380E-02  -1.190136E-02   1.114409E-02
   92 H92        -8.736836E-03   5.780006E-03   2.211976E-03
   93 H93         9.365645E-03   5.756632E-03   3.260705E-03
   94 H94         1.050101E-03   1.489058E-03  -1.072195E-02
   95 H95         7.947530E-03  -3.546083E-03  -6.506551E-03
   96 H96        -2.351757E-02  -7.916349E-03   2.040342E-02
   97 H97        -1.832075E-03  -2.966631E-02   3.316621E-02
   98 H98        -1.273858E-03  -4.479933E-03  -9.175462E-03
   99 H99        -7.902736E-03  -9.991313E-03   6.290231E-03
  100 H100        1.058680E-02  -4.368096E-03  -2.630813E-03
  101 H101       -7.155922E-03   9.291505E-03  -2.525906E-03
  102 H102        4.694352E-03   1.100748E-02  -7.772703E-03
  103 H103        7.510706E-03  -9.365429E-03   7.558910E-04
  104 H104       -1.087995E-02   2.718604E-03   1.619553E-03
 -------------   -------------  -------------  -------------
     total       -1.546751E-03   9.555678E-04   1.245398E-03
   
  end of program der1b
   
 Time(der1b)  user:     300.717  user+sys:     300.717  wallclock:     158.932
  
  start of program geopt
  
 ----------------------------------------------------------------------------
  Geometry optimization step  1
  Total energy:     -2327.68759299268 hartrees
 ----------------------------------------------------------------------------
  
  
  Level shifts adjusted to satisfy step-size constraints
   Step size:    0.3000153
   Cos(theta):   0.4447203
   Final level shift:  -5.7554065E-01
  
  gradient maximum:        9.6298E-01 .  (  2.2500E-03 )
  gradient rms:            1.2605E-01 .  (  1.5000E-03 )
  displacement maximum:    5.3330E-02 .  (  9.0000E-03 )
  displacement rms:        1.0455E-02 .  (  6.0000E-03 )
  
  predicted energy change:  -1.4923E-01
  step size:     0.19560
  trust radius:  0.30000
  
  molecular structure not yet converged...
  
  center of mass moved by:
     x:     6.7144E-02     y:     1.6727E-01     z:    -2.7401E-02
  
  new geometry: 
                                   angstroms
  atom               x                 y                 z
  P1            0.0018340331     -0.0046963789      0.0069200153 
  Pd2           0.0538449358      0.1115538162      2.3275711738 
  Br3           3.9865634368      0.3708798654      5.2825210554 
  C4           -0.3927864270      1.5361756897      3.9541653058 
  C5           -0.1621408169      0.2194248790      4.4461487365 
  C6            1.1702237659     -0.1056612426      4.8271695035 
  C7            2.1563407047      0.8634143027      4.7821107886 
  C8            1.9070113087      2.1777767952      4.3607870824 
  C9            0.6305417834      2.5130394634      3.9443065765 
  F10          -1.6746348409      1.9883681149      3.8570688753 
  H11          -0.9974691515     -0.4301289909      4.7064028399 
  H12           1.3884771166     -1.0980415418      5.1938574812 
  H13           2.7065587530      2.9118020304      4.3376177456 
  H14           0.3888709502      3.5203020452      3.6184877532 
  C15           1.7074080731     -0.0335661238     -0.7284014524 
  C16           2.3195034883     -1.4255221090     -0.9763950952 
  C17           3.6126190631     -1.3155568922     -1.7966557772 
  C18           4.6431546417     -0.4422799717     -1.0690192974 
[...]
    H58      Z     0.00016   0.00009   0.00007   0.00003   0.00021  -0.00003
    H59      X     0.00014  -0.00001   0.00057  -0.00007  -0.00058   0.00001
    H59      Y     0.00008   0.00002   0.00030  -0.00002  -0.00021   0.00001
    H59      Z     0.00012   0.00003   0.00047  -0.00006  -0.00041   0.00002
    H60      X    -0.00003  -0.00002  -0.00004  -0.00001  -0.00000   0.00001
    H60      Y    -0.00013  -0.00009  -0.00029  -0.00007   0.00010   0.00002
    H60      Z     0.00018   0.00012   0.00044   0.00011  -0.00018  -0.00002
    H61      X     0.00005   0.00001  -0.00076   0.00000   0.00171  -0.00006
    H61      Y    -0.00014   0.00005   0.00175   0.00004  -0.00413   0.00020
    H61      Z    -0.00009   0.00001   0.00022   0.00000  -0.00089   0.00003
    H62      X    -0.00002   0.00002  -0.00006   0.00001   0.00006   0.00006
    H62      Y    -0.00022  -0.00005  -0.00095  -0.00007   0.00014   0.00020
    H62      Z     0.00028   0.00009   0.00103   0.00008  -0.00007  -0.00049
    H63      X    -0.00001  -0.00013   0.00000  -0.00004  -0.00003  -0.00002
    H63      Y     0.00003  -0.00000  -0.00023   0.00010  -0.00008   0.00000
    H63      Z     0.00012   0.00094  -0.00028   0.00037  -0.00009  -0.00002
    H64      X     0.00001  -0.00003   0.00005  -0.00001   0.00001   0.00002
    H64      Y    -0.00002   0.00003   0.00008   0.00001   0.00003  -0.00000
    H64      Z    -0.00038   0.00021  -0.00031   0.00005  -0.00003  -0.00003
    H65      X     0.00004   0.00002  -0.00021  -0.00000  -0.00012  -0.00003
    H65      Y     0.00007   0.00010  -0.00033   0.00012  -0.00018  -0.00005
    H65      Z     0.00006  -0.00003  -0.00018   0.00002  -0.00009  -0.00003
    H66      X     0.00000  -0.00002   0.00001  -0.00003   0.00001  -0.00000
    H66      Y     0.00001  -0.00003  -0.00002  -0.00002  -0.00000   0.00000
    H66      Z    -0.00015   0.00040  -0.00017   0.00024  -0.00001   0.00000
    H67      X     0.00019   0.00002  -0.00004   0.00024  -0.00015  -0.00002
    H67      Y    -0.00001  -0.00001  -0.00002  -0.00002  -0.00000  -0.00000
    H67      Z    -0.00003  -0.00000   0.00001  -0.00006   0.00003   0.00000
    H68      X     0.00001  -0.00001   0.00009  -0.00001   0.00001  -0.00000
    H68      Y    -0.00001   0.00002  -0.00007   0.00002  -0.00003   0.00000
    H68      Z    -0.00014   0.00013  -0.00051   0.00006  -0.00003   0.00004
    H69      X     0.00001   0.00005  -0.00019   0.00010  -0.00011  -0.00001
    H69      Y     0.00000  -0.00008   0.00028  -0.00019   0.00015   0.00001
    H69      Z    -0.00000   0.00003  -0.00018   0.00008  -0.00008  -0.00000
    H70      X     0.00002  -0.00002   0.00002  -0.00001  -0.00000  -0.00000
    H70      Y    -0.00002  -0.00002   0.00013  -0.00001   0.00006   0.00000
    H70      Z    -0.00003   0.00025  -0.00068   0.00016  -0.00025  -0.00003
    H71      X     0.00001   0.00002   0.00004  -0.00004   0.00004   0.00000
    H71      Y     0.00001  -0.00002   0.00003  -0.00013   0.00003   0.00000
    H71      Z     0.00000   0.00002   0.00005  -0.00004   0.00003   0.00000
    H72      X    -0.00001  -0.00000   0.00037  -0.00001   0.00022   0.00003
    H72      Y     0.00007   0.00005   0.00012   0.00002   0.00003  -0.00000
    H72      Z    -0.00009   0.00022  -0.00340   0.00007  -0.00167  -0.00013
    H73      X     0.00020  -0.00019   0.00123  -0.00011  -0.00033   0.00003
    H73      Y     0.00001   0.00000   0.00003   0.00001   0.00001   0.00001
    H73      Z    -0.00006   0.00004  -0.00034   0.00003   0.00018  -0.00000
    H74      X    -0.00024  -0.29289  -0.00124   0.35201  -0.00012   0.00004
    H74      Y    -0.00037  -0.49134  -0.00209   0.59075  -0.00020   0.00006
    H74      Z    -0.00016  -0.21299  -0.00090   0.25087  -0.00009   0.00003
    H75      X     0.00006   0.08299   0.00026   0.06677  -0.00001   0.00001
    H75      Y     0.00010   0.12595   0.00040   0.10107  -0.00002   0.00002
    H75      Z     0.00063   0.71801   0.00224   0.59595  -0.00010   0.00011
    H76      X    -0.00587  -0.00058   0.00107   0.00066  -0.00021  -0.00031
    H76      Y     0.00251   0.00023  -0.00047  -0.00028   0.00007   0.00008
    H76      Z     0.00414   0.00043  -0.00075  -0.00048   0.00014   0.00024
    H77      X    -0.00503   0.00061  -0.00052  -0.00069   0.00008   0.00536
    H77      Y     0.00404  -0.00050   0.00045   0.00055  -0.00006  -0.00516
    H77      Z    -0.00302   0.00043  -0.00033  -0.00046   0.00006   0.00347
    H78      X    -0.00000   0.00006  -0.00002   0.00005   0.00002   0.00012
    H78      Y    -0.00014  -0.00039   0.00000   0.00008  -0.00006   0.00004
    H78      Z     0.00048   0.00105  -0.00004  -0.00016   0.00020   0.00001
    H79      X    -0.00002  -0.00004  -0.00000   0.00002   0.00000   0.00003
    H79      Y     0.00011  -0.00000   0.00002  -0.00001  -0.00005  -0.00019
    H79      Z    -0.00027  -0.00008  -0.00006   0.00010   0.00009   0.00038
    H80      X     0.00006  -0.00036  -0.00003   0.00018   0.00014  -0.00014
    H80      Y     0.00000  -0.00014  -0.00001  -0.00002   0.00006  -0.00009
    H80      Z     0.00000  -0.00012  -0.00001   0.00000   0.00006  -0.00003
    H81      X    -0.00039  -0.00006  -0.00005  -0.00041  -0.00002   0.00001
    H81      Y     0.00030   0.00001   0.00003   0.00022   0.00000   0.00001
    H81      Z     0.00029   0.00005   0.00004   0.00027   0.00000   0.00001
    H82      X    -0.00007   0.00005  -0.00002  -0.00003   0.00002   0.00079
    H82      Y     0.00010  -0.00007   0.00008   0.00003  -0.00017  -0.00121
    H82      Z    -0.00036   0.00024  -0.00013  -0.00014   0.00031   0.00288
    H83      X    -0.00063  -0.00001   0.00004  -0.00026  -0.00024   0.00075
    H83      Y     0.00035   0.00003  -0.00005   0.00010   0.00019  -0.00087
    H83      Z     0.00044   0.00001  -0.00006   0.00018   0.00020  -0.00065
    H84      X     0.00007  -0.00003  -0.00002   0.00005   0.00003  -0.00057
    H84      Y     0.00093  -0.00024  -0.00015   0.00024   0.00059  -0.00742
    H84      Z    -0.00016  -0.00002   0.00004   0.00001  -0.00015   0.00048
    H85      X     0.00018  -0.00002  -0.00002  -0.00000  -0.00003   0.00002
    H85      Y     0.00011  -0.00005  -0.00000   0.00001  -0.00002   0.00001
    H85      Z    -0.00036   0.00002   0.00003   0.00004   0.00007  -0.00005
    H86      X    -0.00083   0.00003   0.00026   0.00042   0.00003  -0.00011
    H86      Y     0.00046  -0.00005  -0.00014  -0.00027  -0.00002   0.00007
    H86      Z    -0.00052   0.00002   0.00017   0.00024   0.00002  -0.00008
    H87      X     0.00004   0.00001   0.00002  -0.00009  -0.00001  -0.00001
    H87      Y    -0.00021  -0.00006  -0.00013   0.00000   0.00006   0.00004
    H87      Z    -0.00006  -0.00003  -0.00009  -0.00003   0.00003   0.00003
    H88      X     0.00035  -0.00036  -0.00005   0.00007  -0.00003   0.00002
    H88      Y     0.00045  -0.00031  -0.00007   0.00011  -0.00002   0.00003
    H88      Z    -0.00131   0.00103   0.00018  -0.00023   0.00011  -0.00011
    H89      X    -0.00044  -0.00009   0.00003   0.00006  -0.00008  -0.00012
    H89      Y    -0.00021  -0.00002   0.00003   0.00002  -0.00004  -0.00005
    H89      Z     0.00123   0.00021  -0.00010  -0.00016   0.00016   0.00021
    H90      X    -0.00078   0.00002   0.00025   0.00020   0.00012   0.00007
    H90      Y     0.00062   0.00001  -0.00020  -0.00018  -0.00007  -0.00003
    H90      Z    -0.00064   0.00001   0.00019   0.00016   0.00008   0.00006
    H91      X    -0.00333  -0.00017   0.00038   0.00017  -0.00016  -0.00025
    H91      Y    -0.00229  -0.00013   0.00031   0.00015  -0.00009  -0.00015
    H91      Z    -0.00039  -0.00005   0.00008   0.00005  -0.00006  -0.00007
    H92      X    -0.00015   0.00004   0.00003  -0.00001  -0.00000   0.00018
    H92      Y     0.00017  -0.00002  -0.00003  -0.00000  -0.00000  -0.00014
    H92      Z     0.00013  -0.00001  -0.00001   0.00001  -0.00001  -0.00007
    H93      X    -0.00054  -0.00015   0.00001   0.00007   0.00009  -0.00014
    H93      Y    -0.00018  -0.00004  -0.00000   0.00002   0.00004  -0.00010
    H93      Z    -0.00029  -0.00008   0.00001   0.00005   0.00005  -0.00008
    H94      X     0.00016   0.00000   0.00001   0.00003  -0.00001   0.00005
    H94      Y     0.00027  -0.00000   0.00003   0.00007  -0.00001   0.00011
    H94      Z    -0.00107  -0.00005  -0.00010  -0.00021   0.00003  -0.00037
    H95      X    -0.00127  -0.00001   0.00017   0.00009   0.00002  -0.00006
    H95      Y     0.00073   0.00000  -0.00010  -0.00005  -0.00002   0.00008
    H95      Z     0.00044   0.00001  -0.00009  -0.00005  -0.00000   0.00008
    H96      X     0.00062   0.00002  -0.00007  -0.00000   0.00006   0.00109
    H96      Y    -0.00002  -0.00001   0.00004  -0.00000  -0.00006  -0.00079
    H96      Z    -0.00046  -0.00001   0.00004   0.00002  -0.00003  -0.00018
    H97      X    -0.00108  -0.00001   0.00007   0.00002   0.00008  -0.00058
    H97      Y    -0.01081  -0.00004   0.00065   0.00013   0.00074  -0.00560
    H97      Z     0.00156   0.00000  -0.00007   0.00001  -0.00001   0.00031
    H98      X    -0.00043   0.00000   0.00003   0.00002   0.00007  -0.00014
    H98      Y    -0.00053  -0.00000   0.00007   0.00005   0.00010  -0.00054
    H98      Z     0.00222   0.00002  -0.00030  -0.00027  -0.00031   0.00114
    H99      X     0.00002   0.01195  -0.00002   0.00662  -0.00003  -0.00000
    H99      Y     0.00003   0.01898  -0.00002   0.01056  -0.00004  -0.00000
    H99      Z    -0.00001  -0.00765   0.00002  -0.00381   0.00003   0.00000
    H100     X     0.00008   0.01492   0.00010   0.01082  -0.00004   0.00001
    H100     Y     0.00000   0.00032   0.00001   0.00060   0.00000   0.00000
    H100     Z     0.00003   0.00372   0.00003   0.00265  -0.00001   0.00000
    H101     X     0.00001  -0.00647   0.00001  -0.00445   0.00002  -0.00000
    H101     Y    -0.00002   0.01284  -0.00001   0.00961  -0.00003   0.00000
    H101     Z    -0.00001   0.00273  -0.00000   0.00199  -0.00001   0.00000
    H102     X     0.00001   0.00411   0.00003  -0.00303  -0.00001  -0.00000
    H102     Y     0.00006   0.00812   0.00006  -0.00603  -0.00002  -0.00000
    H102     Z    -0.00009  -0.01729  -0.00013   0.01391   0.00004   0.00001
    H103     X     0.00018  -0.00948  -0.00001   0.00977   0.00001  -0.00000
    H103     Y    -0.00003   0.00360   0.00001  -0.00377  -0.00001  -0.00000
    H103     Z     0.00013  -0.00641  -0.00000   0.00713  -0.00000  -0.00000
    H104     X     0.00010   0.00782   0.00002  -0.00814   0.00001  -0.00000
    H104     Y    -0.00009  -0.00609  -0.00000   0.00629  -0.00001   0.00000
    H104     Z    -0.00010  -0.00683  -0.00001   0.00760  -0.00001   0.00000
  
  Number of imaginary frequencies:   0
   
  Writing vibrational animation data to enc_comp_L1_PL344.vib
  Writing IR vibrational spectrum data to enc_comp_L1_PL344_vib.spm
  rotational symmetry number:  1

  rotational temperatures (K):      0.003073      0.002879      0.002398
   
  The Quasi-Harmonic approximation will be applied to compute
  vibrational constributions to thermodynamic properties.
  Frequencies will be adjusted to a minimum value of  100.00 cm^-1.

  vibrational temperatures:
       mode:      1        2        3        4        5        6
  temp. (K):   143.88   143.88   143.88   143.88   143.88   143.88
   
       mode:      7        8        9       10       11       12
  temp. (K):   143.88   143.88   143.88   143.88   143.88   143.88
   
       mode:     13       14       15       16       17       18
  temp. (K):   143.88   143.88   143.88   143.88   143.88   143.88
   
       mode:     19       20       21       22       23       24
  temp. (K):   143.88   143.88   154.82   161.93   181.80   187.57
   
       mode:     25       26       27       28       29       30
  temp. (K):   199.47   206.68   208.00   220.39   230.39   231.50
   
       mode:     31       32       33       34       35       36
  temp. (K):   236.59   248.31   268.50   293.92   304.38   320.04
   
       mode:     37       38       39       40       41       42
  temp. (K):   330.05   331.84   346.68   354.13   366.22   370.81
   
       mode:     43       44       45       46       47       48
  temp. (K):   372.73   379.22   382.64   386.22   389.14   401.79
   
       mode:     49       50       51       52       53       54
  temp. (K):   402.93   410.94   429.01   441.17   456.28   463.02
   
       mode:     55       56       57       58       59       60
  temp. (K):   468.37   481.56   484.66   491.32   500.82   511.58
   
       mode:     61       62       63       64       65       66
  temp. (K):   550.69   554.29   557.89   579.49   590.76   601.63
   
       mode:     67       68       69       70       71       72
  temp. (K):   606.87   626.28   631.43   645.78   648.69   653.43
   
       mode:     73       74       75       76       77       78
  temp. (K):   660.56   668.86   694.91   711.20   730.50   731.40
   
       mode:     79       80       81       82       83       84
  temp. (K):   760.01   763.42   806.05   816.04   829.22   856.95
   
       mode:     85       86       87       88       89       90
  temp. (K):   896.79   897.90   906.49   914.37   917.26   957.99
   
       mode:     91       92       93       94       95       96
  temp. (K):   967.80   971.10  1041.25  1072.18  1098.98  1107.17
   
       mode:     97       98       99      100      101      102
  temp. (K):  1121.37  1137.93  1159.75  1160.58  1165.08  1173.40
   
       mode:    103      104      105      106      107      108
  temp. (K):  1177.94  1186.62  1202.63  1211.95  1215.45  1245.55
   
       mode:    109      110      111      112      113      114
  temp. (K):  1259.41  1266.20  1296.07  1310.39  1310.98  1314.87
   
       mode:    115      116      117      118      119      120
  temp. (K):  1316.48  1317.88  1323.10  1326.31  1327.96  1339.03
   
       mode:    121      122      123      124      125      126
  temp. (K):  1341.51  1362.93  1366.47  1367.09  1371.91  1373.15
   
       mode:    127      128      129      130      131      132
  temp. (K):  1393.21  1405.47  1409.61  1415.95  1416.88  1438.52
   
       mode:    133      134      135      136      137      138
  temp. (K):  1473.13  1485.17  1512.53  1523.24  1528.45  1532.96
   
       mode:    139      140      141      142      143      144
  temp. (K):  1547.95  1554.15  1570.31  1582.40  1594.91  1599.10
   
       mode:    145      146      147      148      149      150
  temp. (K):  1602.90  1604.60  1611.09  1615.28  1629.25  1631.80
   
       mode:    151      152      153      154      155      156
  temp. (K):  1641.24  1645.67  1648.67  1653.05  1656.33  1676.81
   
       mode:    157      158      159      160      161      162
  temp. (K):  1696.80  1702.54  1703.93  1717.19  1721.29  1740.90
   
       mode:    163      164      165      166      167      168
  temp. (K):  1742.83  1749.51  1753.38  1755.89  1759.35  1768.34
   
       mode:    169      170      171      172      173      174
  temp. (K):  1778.58  1795.47  1802.40  1854.04  1869.88  1874.30
   
       mode:    175      176      177      178      179      180
  temp. (K):  1877.68  1879.61  1880.05  1883.87  1890.32  1891.79
   
       mode:    181      182      183      184      185      186
  temp. (K):  1895.76  1896.56  1906.55  1934.55  1937.12  1949.63
   
       mode:    187      188      189      190      191      192
  temp. (K):  1954.03  1962.29  1965.29  1970.44  1972.48  1975.70
   
       mode:    193      194      195      196      197      198
  temp. (K):  1979.28  1994.18  1998.78  2006.23  2009.41  2012.50
   
       mode:    199      200      201      202      203      204
  temp. (K):  2017.15  2018.56  2021.70  2023.88  2029.91  2032.59
   
       mode:    205      206      207      208      209      210
  temp. (K):  2044.17  2048.39  2051.71  2072.25  2076.47  2079.94
   
       mode:    211      212      213      214      215      216
  temp. (K):  2084.66  2125.60  2128.99  2155.55  2157.38  2158.49
   
       mode:    217      218      219      220      221      222
  temp. (K):  2161.66  2166.33  2169.44  2171.68  2172.96  2176.98
   
       mode:    223      224      225      226      227      228
  temp. (K):  2177.28  2178.95  2179.75  2182.83  2183.96  2184.88
   
       mode:    229      230      231      232      233      234
  temp. (K):  2186.50  2187.14  2188.58  2188.85  2190.94  2198.45
   
       mode:    235      236      237      238      239      240
  temp. (K):  2200.81  2203.72  2204.31  2205.15  2206.49  2206.92
   
       mode:    241      242      243      244      245      246
  temp. (K):  2212.71  2215.92  2219.41  2281.98  2304.18  2322.16
   
       mode:    247      248      249      250      251      252
  temp. (K):  2360.74  2374.37  2389.53  4343.38  4347.73  4349.24
   
       mode:    253      254      255      256      257      258
  temp. (K):  4349.93  4352.26  4353.67  4359.47  4362.80  4364.47
   
       mode:    259      260      261      262      263      264
  temp. (K):  4367.97  4373.01  4375.79  4376.51  4377.62  4381.66
   
       mode:    265      266      267      268      269      270
  temp. (K):  4382.70  4383.03  4383.79  4414.49  4417.40  4427.79
   
       mode:    271      272      273      274      275      276
  temp. (K):  4429.79  4431.45  4433.95  4438.98  4440.69  4441.02
   
       mode:    277      278      279      280      281      282
  temp. (K):  4446.93  4448.83  4449.40  4451.47  4456.37  4465.40
   
       mode:    283      284      285      286      287      288
  temp. (K):  4474.69  4476.24  4480.47  4481.79  4489.50  4490.95
   
       mode:    289      290      291      292      293      294
  temp. (K):  4495.07  4501.46  4505.26  4515.19  4517.52  4524.02
   
       mode:    295      296      297      298      299      300
  temp. (K):  4526.23  4534.99  4549.70  4552.75  4572.01  4573.08
   
       mode:    301      302      303      304      305      306
  temp. (K):  4614.93  4627.06  4627.95  4649.06  4654.75  4663.10
   
   
  Thermodynamic properties calculated assuming an ideal gas

  In the table below, the units for temperature
  are kelvins, the units for U, H, and G are
  kcal/mol and the units for Cv and S are cal/(mol K)

  The zero point energy (ZPE):    568.670 kcal/mol
  is not included in U, H, or G in the table below
  
 
  =============================================================================
  Thermodynamic properties for P = 1.00E+00 atm, calculated at   1 temperatures


  T =   298.15 K, P = 1.00E+00 atm
   
                  U         Cv          S          H          G        ln(Q)
              =========  =========  =========  =========  =========  =========
  trans.          0.889      2.981     45.976      1.481    -12.227   20.63617
  rot.            0.889      2.981     38.657      0.889    -10.637   17.95307
  vib.           28.930    187.018    177.580     28.930    -24.015   40.53337
  elec.           0.000      0.000      0.000      0.000      0.000    0.00000
  ----------------------------------------------------------------------------
  total          30.708    192.980    262.214     31.300    -46.879   79.12261
   
   Total internal energy, Utot(SCFE + ZPE + U):   -2326.875546 hartrees
   Total enthalpy, Htot (Utot + nRT), with n=1:   -2326.874601 hartrees
    Total Gibbs free energy, Gtot (Htot - T*S):   -2326.999188 hartrees
   
  end of program freq
   
 Time(freq)  user:       0.455  user+sys:       0.455  wallclock:       0.671
  
  start of program post
  
  Writing input files for PBF
  end of program post
   
 Time(post)  user:       0.222  user+sys:       0.222  wallclock:       0.178

 Total cpu seconds     user:  196047.246   user+sys:  196047.246
  
 Total elapsed time:    113412 seconds

Job enc_comp_L1_PL344 completed on bp1-compute145.data.bp.acrc.priv at Sat Mar 22 20:36:42 2025
