Job L1_PL344 started on bp1-compute055.data.bp.acrc.priv at Sat Apr  5 10:41:54 2025
jobid: bp1-compute055-0-67f0fadb

  +--------------------------------------------------------------------+
  |  Jaguar version 12.5, release 138                                  |
  |                                                                    |
  |  Copyright Schrodinger, Inc.                                       |
  |  All Rights Reserved.                                              |
  |                                                                    |
  |  The following have contributed to Jaguar (listed alphabetically): |
  |  Ty Balduf, Mike Beachy, Chandler Bennett, Art Bochevarov,         |
  |  Dale Braden, Yixiang Cao, Alan Chien, Chris Cortis,               |
  |  Rich Friesner, Jim Furness, Bill Goddard, Hod Greeley,            |
  |  Tom Hughes, Leif Jacobson, Jean-Marc Langlois, Daniel Levine,     |
  |  Rob Murphy, Dean Philipp, Tom Pollard, Murco Ringnalda,           |
  |  Daniel Mainz, Pablo Videla, Mark Watson, Haoyu Yu.                |
  |                                                                    |
  |  Use of this program should be acknowledged in publications as:    |
  |                                                                    |
  |  Jaguar, version 12.5, Schrodinger, Inc., New York, NY, 2024.      |
  |                                                                    |
  |  A. D. Bochevarov, E. Harder, T. F. Hughes, J. R. Greenwood,       |
  |  D. A. Braden, D. M. Philipp, D. Rinaldo, M. D. Halls,             |
  |  J. Zhang, R. A. Friesner, "Jaguar: A High-Performance Quantum     |
  |  Chemistry Software Program with Strengths in Life and Materials   |
  |  Sciences", Int. J. Quantum Chem., 2013, 113(18), 2110-2142.       |
  +--------------------------------------------------------------------+
  
  start of program pre
  
  Job name: L1_PL344
  Executables used: /software/local/apps/schrodinger2024-3/jaguar-v12.5/bin/Linux-x86_64
  Temporary files : /tmp/ar21627/L1_PL344#bp1-compute055-0-67f0fadb
  Basis file : using default basis file from /software/local/apps/schrodinger2024-3
  Maestro file (input):  L1_PL344.mae
  Maestro file (output): L1_PL344.01.mae
  
 Contents of input file: &gen and (if present) &atomic sections only
 ----------------Contents start----------------
&gen
dftname=b3pw91-d3
basis=6-31G*
numd=5
ip11=2
iaccg=3
isolv=2
igeopt=1
solvent=benzene
ifreq=1
&
&atomic
atom basis
Pd2 lacv3p*
&
 -----------------Contents end-----------------
 
  PS calculation requested. Using PS version of 6-31g*
  basis set:               non_standard                    
  net molecular charge:    0
  multiplicity:            1
  
  Using up to   4 threads per process
  
  This run will use ECP on 1 atom
  number of basis functions....          673
  
 Input geometry:
                                   angstroms
  atom               x                 y                 z
  P1            0.0000000000      0.0000000000      0.0000000000 
  Pd2           0.0000000000      0.0000000000      2.2122636776 
  C3            1.7300610000      0.0000000000     -0.6757070000 
  C4            2.3683310000     -1.3786470000     -0.9527850000 
  C5            3.6839660000     -1.2353690000     -1.7327820000 
  C6            4.6878420000     -0.3819010000     -0.9461730000 
  C7            4.0786400000      0.9798580000     -0.5868500000 
  C8            2.7482580000      0.8044910000      0.1612460000 
  C9           -0.8180240000      1.4096690000     -0.6917300000 
  C10          -2.2927740000      1.4539250000     -0.2588000000 
  C11          -3.0649390000      2.6131910000     -0.9019730000 
  C12          -2.3959200000      3.9537300000     -0.5771470000 
  C13          -0.9361930000      3.9384250000     -1.0456500000 
  C14          -0.1619940000      2.7737060000     -0.4106920000 
  C15          -0.9407660000     -1.3859480000     -0.6815250000 
  C16          -1.6738125872     -2.3161384009      0.1141116587 
  C17          -2.5134174674     -3.2605751516     -0.5240955105 
  C18          -2.6173510128     -3.2340257141     -1.9234076241 
  C19          -1.9183950075     -2.3015299328     -2.6901990567 
  C20          -1.0735400134     -1.3571029430     -2.0903289547 
  C21          -1.6173562052     -2.3803924065      1.5383804198 
  C22          -2.7097877312     -1.9094792274      2.3328230168 
  C23          -2.6332593259     -1.9776224076      3.7367162723 
  C24          -1.5323793991     -2.4998835426      4.4215486242 
  C25          -0.4834933927     -2.9751426397      3.6298823587 
  C26          -0.4959410722     -2.9302975633      2.2233286354 
  C27           0.6597165394     -3.6503670691      1.5432455634 
  C28           0.4111849899     -5.1687471161      1.6369697773 
  C29           2.0520753415     -3.3232316462      2.1205782138 
  C30          -5.2764701539     -1.8544202661      2.2728574508 
  C31          -3.9580805555     -1.2021048488      1.8051498680 
  C32          -3.9793205492      0.2780220728      2.2452926512 
  C33          -1.4362255010     -4.0146042161      6.4272592594 
  C34          -1.4885595395     -2.5593439017      5.9346712514 
  C35          -0.3107842456     -1.7396633680      6.4865529699 
  O36          -0.4225270217     -0.4247376911     -2.8440797967 
  C37          -0.3948513675     -0.3896798114     -4.2552232135 
  O38          -3.1425212944     -4.2311405531      0.2038031613 
  C39          -3.8201344277     -5.3387864864     -0.3554691446 
  H40           1.6344330000      0.5420470000     -1.6433500000 
  H41           1.6814530000     -2.0423920000     -1.5239010000 
  H42           2.5802080000     -1.9043560000      0.0047220000 
  H43           4.1212220000     -2.2431430000     -1.9335920000 
  H44           3.4816040000     -0.7640100000     -2.7240900000 
  H45           5.6210130000     -0.2397150000     -1.5425970000 
  H46           4.9748910000     -0.9171950000     -0.0096740000 
  H47           4.7964410000      1.5609340000      0.0409890000 
  H48           3.9073530000      1.5709840000     -1.5179420000 
  H49           2.3481220000      1.8072140000      0.4333270000 
  H50           2.9401670000      0.2834650000      1.1268150000 
  H51          -0.7997930000      1.2640200000     -1.7961970000 
  H52          -2.3371980000      1.5493870000      0.8518520000 
  H53          -2.7961720000      0.4982840000     -0.5365800000 
  H54          -3.1011620000      2.4693480000     -2.0082010000 
  H55          -4.1204230000      2.6175750000     -0.5372480000 
  H56          -2.4356110000      4.1371990000      0.5230460000 
  H57          -2.9491600000      4.7878510000     -1.0721710000 
  H58          -0.9047120000      3.8440790000     -2.1575050000 
  H59          -0.4455580000      4.9074950000     -0.7861250000 
  H60          -0.0908130000      2.9280340000      0.6918250000 
  H61           0.8719580000      2.7918690000     -0.8252090000 
  H62          -3.2516120760     -3.9563310413     -2.4611165482 
  H63          -2.0569832094     -2.3305787981     -3.7826179339 
  H64          -3.4628719227     -1.5951733762      4.3492819409 
  H65           0.3683605404     -3.4233840986      4.1587189205 
  H66           0.6619608496     -3.4545333448      0.4518470850 
  H67           0.3973772249     -5.5217594052      2.6934197610 
  H68          -0.5673128590     -5.4437891920      1.1783759355 
  H69           1.2040407121     -5.7424013396      1.1030713023 
  H70           2.2199262441     -3.7634442479      3.1283586141 
  H71           2.8607204490     -3.7399521189      1.4784284700 
  H72           2.2093754295     -2.2252668878      2.2097788247 
  H73          -5.4892537843     -1.6636343975      3.3485871750 
  H74          -6.1439797118     -1.4553315805      1.6981876388 
  H75          -5.2674518551     -2.9584909057      2.1496987963 
  H76          -3.9553691014     -1.1528827153      0.6935616443 
  H77          -4.0937450956      0.3976544812      3.3461014525 
  H78          -4.8233131173      0.8289149816      1.7689715750 
  H79          -3.0408642423      0.8011361576      1.9625162942 
  H80          -0.5027672483     -4.5291777710      6.1048656300 
  H81          -2.3002706521     -4.5981600894      6.0333885180 
  H82          -1.4756133278     -4.0629952412      7.5399413553 
  H83          -2.4246072888     -2.1058752121      6.3427813636 
  H84           0.6717601767     -2.1578518002      6.1707272456 
  H85          -0.3616079404     -0.6840915135      6.1323374882 
  H86          -0.3216982015     -1.7224125530      7.6008021411 
  H87           0.2662325470      0.4570177668     -4.5473824852 
  H88          -1.4248372171     -0.2050876112     -4.6362133438 
  H89           0.0354341860     -1.3447297159     -4.6338480700 
  H90          -4.1280411365     -6.0032803575      0.4824275867 
  H91          -4.7246548741     -4.9759584177     -0.8946163398 
  H92          -3.1227742304     -5.8966496108     -1.0211133810 
   
  principal moments of inertia:
        amu*angstrom^2:              4985.10706              6861.73331              7265.28928
                g*cm^2:          8.27796399E-37          1.13941748E-36          1.20642952E-36
   
  rotational constants:
               cm^(-1):      0.00338160      0.00245676      0.00232030
                   GHz:      0.10137776      0.07365180      0.06956075
   
  Molecular weight:     642.28 amu
   
  Stoichiometry: PdC35PH53O2
  Molecular Point Group: C1      
  Point Group used: C1
  
 
Number of optimization coordinates:   302
Number of independent coordinates:    302
Number of non-redundant coordinates:  270
Number of frozen coordinates:           0
Number of harmonic constraints:         0
 
Number of geometric degrees of freedom:   270
Maximum geometric degrees of freedom:     270
 " " " " " excluding dummy atoms:         270
 
 
  bond lengths (angstroms):
 
 P1      -Pd2     :   2.212264      P1      -C3      :   1.857334
 P1      -C9      :   1.770542      P1      -C15     :   1.808416
 C3      -C4      :   1.544289      C3      -C8      :   1.544157
 C3      -H40     :   1.113235      C4      -C5      :   1.536170
 C4      -H41     :   1.112894      C4      -H42     :   1.112691
 C5      -C6      :   1.534578      C5      -H43     :   1.116748
 C5      -H44     :   1.116164      C6      -C7      :   1.534480
 C6      -H45     :   1.116578      C6      -H46     :   1.116229
 C7      -C8      :   1.536332      C7      -H47     :   1.116723
 C7      -H48     :   1.116110      C8      -H49     :   1.113369
 C8      -H50     :   1.113832      C9      -C10     :   1.537620
 C9      -C14     :   1.539466      C9      -H51     :   1.114178
 C10     -C11     :   1.534212      C10     -H52     :   1.115632
 C10     -H53     :   1.115267      C11     -C12     :   1.533018
 C11     -H54     :   1.116129      C11     -H55     :   1.116732
 C12     -C13     :   1.533145      C12     -H56     :   1.116092
 C12     -H57     :   1.116638      C13     -C14     :   1.535945
 C13     -H58     :   1.116295      C13     -H59     :   1.116769
 C14     -H60     :   1.115539      C14     -H61     :   1.114096
 C15     -C16     :   1.426762      C15     -C20     :   1.415341
 C16     -C17     :   1.415700      C16     -C21     :   1.426835
 C17     -C18     :   1.403418      C17     -O38     :   1.366604
 C18     -C19     :   1.395011      C18     -H62     :   1.101428
 C19     -C20     :   1.401987      C19     -H63     :   1.101558
 C20     -O36     :   1.364281      C21     -C22     :   1.430491
 C21     -C26     :   1.424472      C22     -C23     :   1.407628
 C22     -C31     :   1.528742      C23     -C24     :   1.397744
 C23     -H64     :   1.099891      C24     -C25     :   1.397415
 C24     -C34     :   1.514924      C25     -C26     :   1.407323
 C25     -H65     :   1.098291      C26     -C27     :   1.522024
 C27     -C28     :   1.541438      C27     -C29     :   1.542399
 C27     -H66     :   1.108831      C28     -H67     :   1.113955
 C28     -H68     :   1.115085      C28     -H69     :   1.114786
 C29     -H70     :   1.112467      C29     -H71     :   1.113517
 C29     -H72     :   1.112756      C30     -C31     :   1.543508
 C30     -H73     :   1.113046      C30     -H74     :   1.114491
 C30     -H75     :   1.110955      C31     -C32     :   1.544329
 C31     -H76     :   1.112681      C32     -H77     :   1.113187
 C32     -H78     :   1.114759      C32     -H79     :   1.110996
 C33     -C34     :   1.537259      C33     -H80     :   1.113583
 C33     -H81     :   1.114561      C33     -H82     :   1.114430
 C34     -C35     :   1.537402      C34     -H83     :   1.117306
 C35     -H84     :   1.113562      C35     -H85     :   1.114578
 C35     -H86     :   1.114436      O36     -C37     :   1.411850
 C37     -H87     :   1.113232      C37     -H88     :   1.113597
 C37     -H89     :   1.113832      O38     -C39     :   1.413798
 C39     -H90     :   1.112848      C39     -H91     :   1.113769
 C39     -H92     :   1.113824
 
  bond angles:
 
 C3      -P1      -Pd2     : 111.334041  C9      -P1      -Pd2     : 112.997327
 C9      -P1      -C3      : 106.751716  C15     -P1      -Pd2     : 112.139500
 C15     -P1      -C3      : 110.332238  C15     -P1      -C9      : 102.861598
 C4      -C3      -P1      : 116.760510  C8      -C3      -P1      : 114.646323
 C8      -C3      -C4      : 106.847527  H40     -C3      -P1      : 103.662995
 H40     -C3      -C4      : 108.314501  H40     -C3      -C8      : 105.907946
 C5      -C4      -C3      : 111.211448  H41     -C4      -C3      : 111.679997
 H41     -C4      -C5      : 108.883871  H42     -C4      -C3      : 110.248545
 H42     -C4      -C5      : 108.537431  H42     -C4      -H41     : 106.102112
 C6      -C5      -C4      : 110.601118  H43     -C5      -C4      : 110.027297
 H43     -C5      -C6      : 109.750386  H44     -C5      -C4      : 109.576838
 H44     -C5      -C6      : 109.815095  H44     -C5      -H43     : 107.000444
 C7      -C6      -C5      : 110.724618  H45     -C6      -C5      : 110.104777
 H45     -C6      -C7      : 110.112838  H46     -C6      -C5      : 109.364249
 H46     -C6      -C7      : 109.342233  H46     -C6      -H45     : 107.115239
 C8      -C7      -C6      : 110.886276  H47     -C7      -C6      : 109.769420
 H47     -C7      -C8      : 110.013431  H48     -C7      -C6      : 109.608747
 H48     -C7      -C8      : 109.498195  H48     -C7      -H47     : 106.982164
 C7      -C8      -C3      : 111.502229  H49     -C8      -C3      : 111.388588
 H49     -C8      -C7      : 109.111490  H50     -C8      -C3      : 109.862699
 H50     -C8      -C7      : 109.045316  H50     -C8      -H49     : 105.745522
 C10     -C9      -P1      : 110.857327  C14     -C9      -P1      : 115.928139
 C14     -C9      -C10     : 109.378978  H51     -C9      -P1      : 106.000389
 H51     -C9      -C10     : 107.371173  H51     -C9      -C14     : 106.847078
 C11     -C10     -C9      : 112.732647  H52     -C10     -C9      : 108.720752
 H52     -C10     -C11     : 109.429831  H53     -C10     -C9      : 109.762611
 H53     -C10     -C11     : 108.413472  H53     -C10     -H52     : 107.656261
 C12     -C11     -C10     : 110.626189  H54     -C11     -C10     : 109.539408
 H54     -C11     -C12     : 109.686039  H55     -C11     -C10     : 109.983071
 H55     -C11     -C12     : 109.866913  H55     -C11     -H54     : 107.069708
 C13     -C12     -C11     : 110.000606  H56     -C12     -C11     : 109.699947
 H56     -C12     -C13     : 109.677805  H57     -C12     -C11     : 110.062984
 H57     -C12     -C13     : 110.103242  H57     -C12     -H56     : 107.252736
 C14     -C13     -C12     : 111.171369  H58     -C13     -C12     : 109.393996
 H58     -C13     -C14     : 109.478303  H59     -C13     -C12     : 109.792782
 H59     -C13     -C14     : 109.907327  H59     -C13     -H58     : 107.002557
 C13     -C14     -C9      : 112.434621  H60     -C14     -C9      : 109.280610
 H60     -C14     -C13     : 109.622954  H61     -C14     -C9      : 109.999296
 H61     -C14     -C13     : 107.554917  H61     -C14     -H60     : 107.833293
 C16     -C15     -P1      : 123.832937  C20     -C15     -P1      : 114.098396
 C20     -C15     -C16     : 121.343339  C17     -C16     -C15     : 119.225455
 C21     -C16     -C15     : 124.449485  C21     -C16     -C17     : 116.322323
 C18     -C17     -C16     : 118.736932  O38     -C17     -C16     : 120.443358
 O38     -C17     -C18     : 120.691735  C19     -C18     -C17     : 121.573946
 H62     -C18     -C17     : 121.131545  H62     -C18     -C19     : 117.293272
 C20     -C19     -C18     : 121.133741  H63     -C19     -C18     : 117.674159
 H63     -C19     -C20     : 121.191582  C19     -C20     -C15     : 117.949811
 O36     -C20     -C15     : 121.271958  O36     -C20     -C19     : 120.765950
 C22     -C21     -C16     : 120.618772  C26     -C21     -C16     : 121.905017
 C26     -C21     -C22     : 117.467414  C23     -C22     -C21     : 119.764417
 C31     -C22     -C21     : 125.747183  C31     -C22     -C23     : 114.270544
 C24     -C23     -C22     : 123.337088  H64     -C23     -C22     : 119.842345
 H64     -C23     -C24     : 116.815584  C25     -C24     -C23     : 116.147259
 C34     -C24     -C23     : 121.790863  C34     -C24     -C25     : 122.058730
 C26     -C25     -C24     : 123.280324  H65     -C25     -C24     : 116.627553
 H65     -C25     -C26     : 120.073501  C25     -C26     -C21     : 119.989746
 C27     -C26     -C21     : 124.439266  C27     -C26     -C25     : 115.137511
 C28     -C27     -C26     : 108.447251  C29     -C27     -C26     : 114.697965
 C29     -C27     -C28     : 109.372768  H66     -C27     -C26     : 110.964197
 H66     -C27     -C28     : 103.541195  H66     -C27     -C29     : 109.216446
 H67     -C28     -C27     : 111.828064  H68     -C28     -C27     : 111.066057
 H68     -C28     -H67     : 107.517143  H69     -C28     -C27     : 111.290528
 H69     -C28     -H67     : 107.454287  H69     -C28     -H68     : 107.470254
 H70     -C29     -C27     : 113.039231  H71     -C29     -C27     : 111.120614
 H71     -C29     -H70     : 105.352549  H72     -C29     -C27     : 111.523991
 H72     -C29     -H70     : 107.247586  H72     -C29     -H71     : 108.230131
 H73     -C30     -C31     : 112.563474  H74     -C30     -C31     : 110.933396
 H74     -C30     -H73     : 106.747858  H75     -C30     -C31     : 112.301123
 H75     -C30     -H73     : 106.202930  H75     -C30     -H74     : 107.759837
 C30     -C31     -C22     : 113.410265  C32     -C31     -C22     : 110.875326
 C32     -C31     -C30     : 107.874938  H76     -C31     -C22     : 111.303542
 H76     -C31     -C30     : 108.874448  H76     -C31     -C32     : 104.025938
 H77     -C32     -C31     : 112.721430  H78     -C32     -C31     : 111.239696
 H78     -C32     -H77     : 106.953943  H79     -C32     -C31     : 111.538001
 H79     -C32     -H77     : 106.733468  H79     -C32     -H78     : 107.342713
 H80     -C33     -C34     : 111.913632  H81     -C33     -C34     : 110.855877
 H81     -C33     -H80     : 107.793726  H82     -C33     -C34     : 111.089936
 H82     -C33     -H80     : 107.374596  H82     -C33     -H81     : 107.619723
 C33     -C34     -C24     : 110.989231  C35     -C34     -C24     : 111.086461
 C35     -C34     -C33     : 111.322334  H83     -C34     -C24     : 108.945303
 H83     -C34     -C33     : 107.198855  H83     -C34     -C35     : 107.115307
 H84     -C35     -C34     : 111.957177  H85     -C35     -C34     : 110.849828
 H85     -C35     -H84     : 107.803871  H86     -C35     -C34     : 111.079362
 H86     -C35     -H84     : 107.338962  H86     -C35     -H85     : 107.616392
 C37     -O36     -C20     : 125.347685  H87     -C37     -O36     : 107.027922
 H88     -C37     -O36     : 109.143780  H88     -C37     -H87     : 109.474790
 H89     -C37     -O36     : 109.028651  H89     -C37     -H87     : 109.483317
 H89     -C37     -H88     : 112.528252  C39     -O38     -C17     : 124.495828
 H90     -C39     -O38     : 107.612303  H91     -C39     -O38     : 108.996383
 H91     -C39     -H90     : 109.529437  H92     -C39     -O38     : 109.191410
 H92     -C39     -H90     : 108.912965  H92     -C39     -H91     : 112.478480
 
  torsional angles:
 
 P1      -C3      -C4      -C5      : 169.923669
 P1      -C3      -C4      -H41     :  48.060819
 P1      -C3      -C4      -H42     : -69.634716
 P1      -C3      -C8      -C7      :-169.287675
 P1      -C3      -C8      -H49     : -47.131717
 P1      -C3      -C8      -H50     :  69.699520
 P1      -C9      -C10     -C11     :-176.567334
 P1      -C9      -C10     -H52     :  61.912220
 P1      -C9      -C10     -H53     : -55.607106
 P1      -C9      -C14     -C13     :-179.962271
 P1      -C9      -C14     -H60     : -58.000942
 P1      -C9      -C14     -H61     :  60.201212
 P1      -C15     -C16     -C17     : 171.983891
 P1      -C15     -C16     -C21     :  -8.641080
 P1      -C15     -C20     -C19     :-172.587532
 P1      -C15     -C20     -O36     :   6.146929
 Pd2     -P1      -C3      -C4      :  91.075667
 Pd2     -P1      -C3      -C8      : -34.974391
 Pd2     -P1      -C3      -H40     :-149.927766
 Pd2     -P1      -C9      -C10     : -60.723470
 Pd2     -P1      -C9      -C14     :  64.731663
 Pd2     -P1      -C9      -H51     :-176.931342
 Pd2     -P1      -C15     -C16     :   4.069141
 Pd2     -P1      -C15     -C20     : 174.400874
 C3      -P1      -C9      -C10     : 176.560205
 C3      -P1      -C9      -C14     : -57.984661
 C3      -P1      -C9      -H51     :  60.352333
 C3      -P1      -C15     -C16     : 128.793160
 C3      -P1      -C15     -C20     : -60.875107
 C3      -C4      -C5      -C6      :  59.308658
 C3      -C4      -C5      -H43     :-179.274375
 C3      -C4      -C5      -H44     : -61.892393
 C3      -C8      -C7      -C6      : -58.192460
 C3      -C8      -C7      -H47     :-179.812198
 C3      -C8      -C7      -H48     :  62.882889
 C4      -C3      -P1      -C9      :-145.173781
 C4      -C3      -P1      -C15     : -34.107767
 C4      -C3      -C8      -C7      :  59.675156
 C4      -C3      -C8      -H49     :-178.168885
 C4      -C3      -C8      -H50     : -61.337649
 C4      -C5      -C6      -C7      : -55.119754
 C4      -C5      -C6      -H45     :-177.126106
 C4      -C5      -C6      -H46     :  65.433232
 C5      -C4      -C3      -C8      : -60.233288
 C5      -C4      -C3      -H40     :  53.463667
 C5      -C6      -C7      -C8      :  54.573566
 C5      -C6      -C7      -H47     : 176.336307
 C5      -C6      -C7      -H48     : -66.436546
 C6      -C5      -C4      -H41     :-177.216787
 C6      -C5      -C4      -H42     : -62.137696
 C6      -C7      -C8      -H49     : 178.348316
 C6      -C7      -C8      -H50     :  63.296121
 C7      -C6      -C5      -H43     :-176.700207
 C7      -C6      -C5      -H44     :  65.940081
 C7      -C8      -C3      -H40     : -55.646904
 C8      -C3      -P1      -C9      :  88.776161
 C8      -C3      -P1      -C15     :-160.157826
 C8      -C3      -C4      -H41     : 177.903862
 C8      -C3      -C4      -H42     :  60.208326
 C8      -C7      -C6      -H45     : 176.575196
 C8      -C7      -C6      -H46     : -65.992517
 C9      -P1      -C3      -H40     : -26.177214
 C9      -P1      -C15     -C16     :-117.635352
 C9      -P1      -C15     -C20     :  52.696382
 C9      -C10     -C11     -C12     : -57.021071
 C9      -C10     -C11     -H54     :  64.010740
 C9      -C10     -C11     -H55     :-178.571318
 C9      -C14     -C13     -C12     :  56.244359
 C9      -C14     -C13     -H58     : -64.733025
 C9      -C14     -C13     -H59     : 178.011177
 C10     -C9      -P1      -C15     :  60.397225
 C10     -C9      -C14     -C13     : -53.757089
 C10     -C9      -C14     -H60     :  68.204241
 C10     -C9      -C14     -H61     :-173.593606
 C10     -C11     -C12     -C13     :  56.989562
 C10     -C11     -C12     -H56     : -63.737169
 C10     -C11     -C12     -H57     : 178.478605
 C11     -C10     -C9      -C14     :  54.380734
 C11     -C10     -C9      -H51     : -61.210102
 C11     -C12     -C13     -C14     : -56.858653
 C11     -C12     -C13     -H58     :  64.168238
 C11     -C12     -C13     -H59     :-178.692164
 C12     -C11     -C10     -H52     :  64.096393
 C12     -C11     -C10     -H53     :-178.747869
 C12     -C13     -C14     -H60     : -65.522455
 C12     -C13     -C14     -H61     : 177.489555
 C13     -C12     -C11     -H54     : -63.955251
 C13     -C12     -C11     -H55     : 178.608293
 C13     -C14     -C9      -H51     :  62.168088
 C14     -C9      -P1      -C15     :-174.147642
 C14     -C9      -C10     -H52     : -67.139713
 C14     -C9      -C10     -H53     : 175.340961
 C14     -C13     -C12     -H56     :  63.881404
 C14     -C13     -C12     -H57     :-178.323655
 C15     -P1      -C3      -H40     :  84.888800
 C15     -P1      -C9      -H51     : -55.810647
 C15     -C16     -C17     -C18     :  -1.211674
 C15     -C16     -C17     -O38     : 174.704477
 C15     -C16     -C21     -C22     : 106.312724
 C15     -C16     -C21     -C26     : -74.793750
 C15     -C20     -C19     -C18     :   0.582654
 C15     -C20     -C19     -H63     :-179.685155
 C15     -C20     -O36     -C37     : 173.920676
 C16     -C15     -C20     -C19     :  -1.988453
 C16     -C15     -C20     -O36     : 176.746008
 C16     -C17     -C18     -C19     :  -0.160242
 C16     -C17     -C18     -H62     : 179.424135
 C16     -C17     -O38     -C39     :-169.338857
 C16     -C21     -C22     -C23     :-179.803181
 C16     -C21     -C22     -C31     :  -5.486577
 C16     -C21     -C26     -C25     :-179.918040
 C16     -C21     -C26     -C27     :  -7.851630
 C17     -C16     -C15     -C20     :   2.324640
 C17     -C16     -C21     -C22     : -74.295785
 C17     -C16     -C21     -C26     : 104.597740
 C17     -C18     -C19     -C20     :   0.485811
 C17     -C18     -C19     -H63     :-179.255501
 C17     -O38     -C39     -H90     : 173.917434
 C17     -O38     -C39     -H91     : -67.382869
 C17     -O38     -C39     -H92     :  55.845501
 C18     -C17     -C16     -C21     : 179.363309
 C18     -C17     -O38     -C39     :   6.496845
 C18     -C19     -C20     -O36     :-178.158510
 C19     -C18     -C17     -O38     :-176.065905
 C19     -C20     -O36     -C37     :  -7.380356
 C20     -C15     -C16     -C21     :-178.300331
 C20     -C19     -C18     -H62     :-179.113854
 C20     -O36     -C37     -H87     :-176.871282
 C20     -O36     -C37     -H88     :  64.743069
 C20     -O36     -C37     -H89     : -58.537095
 C21     -C16     -C17     -O38     :  -4.720540
 C21     -C22     -C23     -C24     :  -0.533899
 C21     -C22     -C23     -H64     : 178.627488
 C21     -C22     -C31     -C30     : 127.107180
 C21     -C22     -C31     -C32     :-111.353379
 C21     -C22     -C31     -H76     :   3.932119
 C21     -C26     -C25     -C24     :  -0.025920
 C21     -C26     -C25     -H65     : 178.350264
 C21     -C26     -C27     -C28     : -97.611058
 C21     -C26     -C27     -C29     : 139.820877
 C21     -C26     -C27     -H66     :  15.476161
 C22     -C21     -C26     -C25     :  -0.991216
 C22     -C21     -C26     -C27     : 171.075193
 C22     -C23     -C24     -C25     :  -0.479812
 C22     -C23     -C24     -C34     :-179.846713
 C22     -C31     -C30     -H73     :  72.797348
 C22     -C31     -C30     -H74     :-167.661808
 C22     -C31     -C30     -H75     : -47.005828
 C22     -C31     -C32     -H77     : -66.380744
 C22     -C31     -C32     -H78     : 173.491349
 C22     -C31     -C32     -H79     :  53.675279
 C23     -C22     -C21     -C26     :   1.255466
 C23     -C22     -C31     -C30     : -58.303934
 C23     -C22     -C31     -C32     :  63.235507
 C23     -C22     -C31     -H76     : 178.521005
 C23     -C24     -C25     -C26     :   0.764190
 C23     -C24     -C25     -H65     :-177.663878
 C23     -C24     -C34     -C33     : 116.075623
 C23     -C24     -C34     -C35     :-119.498530
 C23     -C24     -C34     -H83     :  -1.733846
 C24     -C23     -C22     -C31     :-175.475746
 C24     -C25     -C26     -C27     :-172.802318
 C24     -C34     -C33     -H80     :  63.944766
 C24     -C34     -C33     -H81     : -56.435995
 C24     -C34     -C33     -H82     :-176.046948
 C24     -C34     -C35     -H84     : -64.132907
 C24     -C34     -C35     -H85     :  56.286118
 C24     -C34     -C35     -H86     : 175.881942
 C25     -C24     -C23     -H64     :-179.664753
 C25     -C24     -C34     -C33     : -63.253806
 C25     -C24     -C34     -C35     :  61.172040
 C25     -C24     -C34     -H83     : 178.936725
 C25     -C26     -C27     -C28     :  74.800742
 C25     -C26     -C27     -C29     : -47.767323
 C25     -C26     -C27     -H66     :-172.112039
 C26     -C21     -C22     -C31     : 175.572070
 C26     -C25     -C24     -C34     :-179.870756
 C26     -C27     -C28     -H67     : -62.918265
 C26     -C27     -C28     -H68     :  57.197085
 C26     -C27     -C28     -H69     : 176.891982
 C26     -C27     -C29     -H70     :  71.409840
 C26     -C27     -C29     -H71     :-170.380230
 C26     -C27     -C29     -H72     : -49.526381
 C27     -C26     -C25     -H65     :   5.573866
 C28     -C27     -C29     -H70     : -50.657022
 C28     -C27     -C29     -H71     :  67.552907
 C28     -C27     -C29     -H72     :-171.593244
 C29     -C27     -C28     -H67     :  62.827879
 C29     -C27     -C28     -H68     :-177.056771
 C29     -C27     -C28     -H69     : -57.361874
 C30     -C31     -C32     -H77     :  58.354625
 C30     -C31     -C32     -H78     : -61.773282
 C30     -C31     -C32     -H79     : 178.410648
 C31     -C22     -C23     -H64     :   3.685641
 C32     -C31     -C30     -H73     : -50.406801
 C32     -C31     -C30     -H74     :  69.134043
 C32     -C31     -C30     -H75     :-170.209977
 C33     -C34     -C35     -H84     :  60.104192
 C33     -C34     -C35     -H85     :-179.476782
 C33     -C34     -C35     -H86     : -59.880958
 C34     -C24     -C23     -H64     :   0.968346
 C34     -C24     -C25     -H65     :   1.701176
 C35     -C34     -C33     -H80     : -60.347228
 C35     -C34     -C33     -H81     : 179.272011
 C35     -C34     -C33     -H82     :  59.661058
 O36     -C20     -C19     -H63     :   1.573680
 O38     -C17     -C18     -H62     :   3.518472
 H40     -C3      -C4      -H41     : -68.399183
 H40     -C3      -C4      -H42     : 173.905282
 H40     -C3      -C8      -H49     :  66.509054
 H40     -C3      -C8      -H50     :-176.659709
 H41     -C4      -C5      -H43     : -55.799821
 H41     -C4      -C5      -H44     :  61.582161
 H42     -C4      -C5      -H43     :  59.279271
 H42     -C4      -C5      -H44     : 176.661253
 H43     -C5      -C6      -H45     :  61.293441
 H43     -C5      -C6      -H46     : -56.147221
 H44     -C5      -C6      -H45     : -56.066271
 H44     -C5      -C6      -H46     :-173.506933
 H45     -C6      -C7      -H47     : -61.662063
 H45     -C6      -C7      -H48     :  55.565084
 H46     -C6      -C7      -H47     :  55.770224
 H46     -C6      -C7      -H48     : 172.997372
 H47     -C7      -C8      -H49     :  56.728577
 H47     -C7      -C8      -H50     : -58.323618
 H48     -C7      -C8      -H49     : -60.576336
 H48     -C7      -C8      -H50     :-175.628531
 H51     -C9      -C10     -H52     : 177.269451
 H51     -C9      -C10     -H53     :  59.750125
 H51     -C9      -C14     -H60     :-175.870582
 H51     -C9      -C14     -H61     : -57.668429
 H52     -C10     -C11     -H54     :-174.871796
 H52     -C10     -C11     -H55     : -57.453854
 H53     -C10     -C11     -H54     : -57.716058
 H53     -C10     -C11     -H55     :  59.701883
 H54     -C11     -C12     -H56     : 175.318019
 H54     -C11     -C12     -H57     :  57.533792
 H55     -C11     -C12     -H56     :  57.881563
 H55     -C11     -C12     -H57     : -59.902664
 H56     -C12     -C13     -H58     :-175.091706
 H56     -C12     -C13     -H59     : -57.952107
 H57     -C12     -C13     -H58     : -57.296765
 H57     -C12     -C13     -H59     :  59.842834
 H58     -C13     -C14     -H60     : 173.500161
 H58     -C13     -C14     -H61     :  56.512171
 H59     -C13     -C14     -H60     :  56.244363
 H59     -C13     -C14     -H61     : -60.743627
 H62     -C18     -C19     -H63     :   1.144834
 H66     -C27     -C28     -H67     : 179.158608
 H66     -C27     -C28     -H68     : -60.726042
 H66     -C27     -C28     -H69     :  58.968856
 H66     -C27     -C29     -H70     :-163.325785
 H66     -C27     -C29     -H71     : -45.115856
 H66     -C27     -C29     -H72     :  75.737993
 H73     -C30     -C31     -H76     :-162.702274
 H74     -C30     -C31     -H76     : -43.161430
 H75     -C30     -C31     -H76     :  77.494550
 H76     -C31     -C32     -H77     : 173.880183
 H76     -C31     -C32     -H78     :  53.752275
 H76     -C31     -C32     -H79     : -66.063794
 H80     -C33     -C34     -H83     :-177.188994
 H81     -C33     -C34     -H83     :  62.430244
 H82     -C33     -C34     -H83     : -57.180708
 H83     -C34     -C35     -H84     : 176.996873
 H83     -C34     -C35     -H85     : -62.584102
 H83     -C34     -C35     -H86     :  57.011722
 
  nuclear repulsion energy.......          5669.684173045 hartrees
  
  Detected an organometallic with only one TM atom. 
  
  
 
  Will use High-Quality Initial guess for organometallics
       including d-d repulsion (iguess=30)
 
 Non-default options chosen:
   SCF calculation type: DFT(b3pw91-d3)              
   DFT=Becke_3_Parameter/HF+Slater+Becke88+PW91+PW-GGAIIC (B3PW91-D3)
   Geometry will be optimized in redundant internal coordinates
   Solvation energy will be computed using PBF
     -solute cavity energy will not be included
     -surface area terms will not be included
   Vibrational frequencies and related properties will be computed
      from analytic second derivatives
   IR intensities will be computed
   Thermochemical properties will be computed
   Maximum number of geometry steps: 100
   Scaling standard convergence criteria by a factor of   5.00
   Solvent: benzene                                                         
   Internal dielectric constant:    1.000
   Continuum dielectric constant:   2.283
   Solvent probe molecule radius:   2.600
  
 Non-default print settings:
     11=  2
  
 Temporary integer options set:
     21= -1  73=  2
  
  atom       vdw   vdw2    cov     mass  grid  daf  charge   basis
  P1        2.147  2.074  1.060   30.974    Y    Y      Y    ps_6-31g*
  Pd2       1.450  1.450  1.280  105.903    Y    Y      Y    lacv3p*
  C3        1.949  1.900  0.770   12.000    Y    Y      Y    ps_6-31g*
  C4        1.949  1.900  0.770   12.000    Y    Y      Y    ps_6-31g*
  C5        1.949  1.900  0.770   12.000    Y    Y      Y    ps_6-31g*
  C6        1.949  1.900  0.770   12.000    Y    Y      Y    ps_6-31g*
  C7        1.949  1.900  0.770   12.000    Y    Y      Y    ps_6-31g*
  C8        1.949  1.900  0.770   12.000    Y    Y      Y    ps_6-31g*
  C9        1.949  1.900  0.770   12.000    Y    Y      Y    ps_6-31g*
  C10       1.949  1.900  0.770   12.000    Y    Y      Y    ps_6-31g*
  C11       1.949  1.900  0.770   12.000    Y    Y      Y    ps_6-31g*
  C12       1.949  1.900  0.770   12.000    Y    Y      Y    ps_6-31g*
  C13       1.949  1.900  0.770   12.000    Y    Y      Y    ps_6-31g*
  C14       1.949  1.900  0.770   12.000    Y    Y      Y    ps_6-31g*
  C15       1.949  1.900  0.770   12.000    Y    Y      Y    ps_6-31g*
  C16       1.949  1.900  0.770   12.000    Y    Y      Y    ps_6-31g*
  C17       1.949  1.900  0.770   12.000    Y    Y      Y    ps_6-31g*
  C18       1.949  1.900  0.770   12.000    Y    Y      Y    ps_6-31g*
  C19       1.949  1.900  0.770   12.000    Y    Y      Y    ps_6-31g*
  C20       1.949  1.900  0.770   12.000    Y    Y      Y    ps_6-31g*
  C21       1.949  1.900  0.770   12.000    Y    Y      Y    ps_6-31g*
  C22       1.949  1.900  0.770   12.000    Y    Y      Y    ps_6-31g*
  C23       1.949  1.900  0.770   12.000    Y    Y      Y    ps_6-31g*
  C24       1.949  1.900  0.770   12.000    Y    Y      Y    ps_6-31g*
  C25       1.949  1.900  0.770   12.000    Y    Y      Y    ps_6-31g*
  C26       1.949  1.900  0.770   12.000    Y    Y      Y    ps_6-31g*
  C27       1.949  1.900  0.770   12.000    Y    Y      Y    ps_6-31g*
  C28       1.949  1.900  0.770   12.000    Y    Y      Y    ps_6-31g*
  C29       1.949  1.900  0.770   12.000    Y    Y      Y    ps_6-31g*
  C30       1.949  1.900  0.770   12.000    Y    Y      Y    ps_6-31g*
  C31       1.949  1.900  0.770   12.000    Y    Y      Y    ps_6-31g*
  C32       1.949  1.900  0.770   12.000    Y    Y      Y    ps_6-31g*
  C33       1.949  1.900  0.770   12.000    Y    Y      Y    ps_6-31g*
  C34       1.949  1.900  0.770   12.000    Y    Y      Y    ps_6-31g*
  C35       1.949  1.900  0.770   12.000    Y    Y      Y    ps_6-31g*
  O36       1.702  1.600  0.730   15.995    Y    Y      Y    ps_6-31g*
  C37       1.949  1.900  0.770   12.000    Y    Y      Y    ps_6-31g*
  O38       1.702  1.600  0.730   15.995    Y    Y      Y    ps_6-31g*
  C39       1.949  1.900  0.770   12.000    Y    Y      Y    ps_6-31g*
  H40       1.597  1.150  0.320    1.008    Y    Y      Y    ps_6-31g*
  H41       1.597  1.150  0.320    1.008    Y    Y      Y    ps_6-31g*
  H42       1.597  1.150  0.320    1.008    Y    Y      Y    ps_6-31g*
  H43       1.597  1.150  0.320    1.008    Y    Y      Y    ps_6-31g*
  H44       1.597  1.150  0.320    1.008    Y    Y      Y    ps_6-31g*
  H45       1.597  1.150  0.320    1.008    Y    Y      Y    ps_6-31g*
  H46       1.597  1.150  0.320    1.008    Y    Y      Y    ps_6-31g*
  H47       1.597  1.150  0.320    1.008    Y    Y      Y    ps_6-31g*
  H48       1.597  1.150  0.320    1.008    Y    Y      Y    ps_6-31g*
  H49       1.597  1.150  0.320    1.008    Y    Y      Y    ps_6-31g*
  H50       1.597  1.150  0.320    1.008    Y    Y      Y    ps_6-31g*
  H51       1.597  1.150  0.320    1.008    Y    Y      Y    ps_6-31g*
  H52       1.597  1.150  0.320    1.008    Y    Y      Y    ps_6-31g*
  H53       1.597  1.150  0.320    1.008    Y    Y      Y    ps_6-31g*
  H54       1.597  1.150  0.320    1.008    Y    Y      Y    ps_6-31g*
  H55       1.597  1.150  0.320    1.008    Y    Y      Y    ps_6-31g*
  H56       1.597  1.150  0.320    1.008    Y    Y      Y    ps_6-31g*
  H57       1.597  1.150  0.320    1.008    Y    Y      Y    ps_6-31g*
  H58       1.597  1.150  0.320    1.008    Y    Y      Y    ps_6-31g*
  H59       1.597  1.150  0.320    1.008    Y    Y      Y    ps_6-31g*
  H60       1.597  1.150  0.320    1.008    Y    Y      Y    ps_6-31g*
  H61       1.597  1.150  0.320    1.008    Y    Y      Y    ps_6-31g*
  H62       1.597  1.150  0.320    1.008    Y    Y      Y    ps_6-31g*
  H63       1.597  1.150  0.320    1.008    Y    Y      Y    ps_6-31g*
  H64       1.597  1.150  0.320    1.008    Y    Y      Y    ps_6-31g*
  H65       1.597  1.150  0.320    1.008    Y    Y      Y    ps_6-31g*
  H66       1.597  1.150  0.320    1.008    Y    Y      Y    ps_6-31g*
  H67       1.597  1.150  0.320    1.008    Y    Y      Y    ps_6-31g*
  H68       1.597  1.150  0.320    1.008    Y    Y      Y    ps_6-31g*
  H69       1.597  1.150  0.320    1.008    Y    Y      Y    ps_6-31g*
  H70       1.597  1.150  0.320    1.008    Y    Y      Y    ps_6-31g*
  H71       1.597  1.150  0.320    1.008    Y    Y      Y    ps_6-31g*
  H72       1.597  1.150  0.320    1.008    Y    Y      Y    ps_6-31g*
  H73       1.597  1.150  0.320    1.008    Y    Y      Y    ps_6-31g*
  H74       1.597  1.150  0.320    1.008    Y    Y      Y    ps_6-31g*
  H75       1.597  1.150  0.320    1.008    Y    Y      Y    ps_6-31g*
  H76       1.597  1.150  0.320    1.008    Y    Y      Y    ps_6-31g*
  H77       1.597  1.150  0.320    1.008    Y    Y      Y    ps_6-31g*
  H78       1.597  1.150  0.320    1.008    Y    Y      Y    ps_6-31g*
  H79       1.597  1.150  0.320    1.008    Y    Y      Y    ps_6-31g*
  H80       1.597  1.150  0.320    1.008    Y    Y      Y    ps_6-31g*
  H81       1.597  1.150  0.320    1.008    Y    Y      Y    ps_6-31g*
  H82       1.597  1.150  0.320    1.008    Y    Y      Y    ps_6-31g*
  H83       1.597  1.150  0.320    1.008    Y    Y      Y    ps_6-31g*
  H84       1.597  1.150  0.320    1.008    Y    Y      Y    ps_6-31g*
  H85       1.597  1.150  0.320    1.008    Y    Y      Y    ps_6-31g*
  H86       1.597  1.150  0.320    1.008    Y    Y      Y    ps_6-31g*
  H87       1.597  1.150  0.320    1.008    Y    Y      Y    ps_6-31g*
  H88       1.597  1.150  0.320    1.008    Y    Y      Y    ps_6-31g*
  H89       1.597  1.150  0.320    1.008    Y    Y      Y    ps_6-31g*
  H90       1.597  1.150  0.320    1.008    Y    Y      Y    ps_6-31g*
  H91       1.597  1.150  0.320    1.008    Y    Y      Y    ps_6-31g*
  H92       1.597  1.150  0.320    1.008    Y    Y      Y    ps_6-31g*
 
  atom      formal  2spin      esp    mulk    frag
  P1           0       0        Y    0.000       0
  Pd2          0       0        Y    0.000       0
  
  end of program pre
   
 Time(pre)  user:       1.076  user+sys:       1.076  wallclock:       1.138
  
  start of program onee
  
  smallest eigenvalue of S:    3.043E-04
  number of canonical orbitals.....          671
  end of program onee
   
 Time(onee)  user:       6.100  user+sys:       6.100  wallclock:       4.933
  
  start of program hfig
  
  initial wavefunction generated automatically from atomic wavefunctions
  Only one possible d-orb occupation 
  Skip d-d repulsion considerations 
 
  Irreducible     Total no   No of occupied orbitals 
  representation  orbitals   Shell_1  Shell_2    ...
  No Symm          671        156
  ------------------------
  Orbital occupation/shell    1.000
 
  end of program hfig
   
 Time(hfig)  user:       1.359  user+sys:       1.359  wallclock:       1.337
  
  start of program probe
  
  end of program probe
   
 Time(probe)  user:       0.800  user+sys:       0.800  wallclock:       0.684
  
  start of program grid
  
   grid     grid set  grid #  grid sym
  ------    --------  ------  --------
  coarse        0        0        1
  medium        2        1        1
  fine          0        0        1
  ultrafine     4        2        1
  charge       -1        3        1
  gradient      4        2        1
  density       0        0        1
  DFT-fine    -11        4        1
  DFT-med.    -10        5        1
  DFT-grad    -12        6        1
  DFT-der2     -8        7        1
  DFT-cphf     -9        8        1
  LMP2-enrg     4        2        1
  LMP2-grad     2        1        1
  DFT-cphf2   -15        9        1
  PBF-dens      0        0        1
  plotting      0        0        1
  Rel-grad    -17        0        1
  
  number of gridpoints: 
     atom           P1         Pd2          C3          C4          C5          C6          C7
  grid # 1         595         387          79          92          92          92          92
  grid # 2         424         373         329         278         281         281         283
  grid # 3           7         385           6           6           6           6           6
  grid # 4        8714        8714        8714        8714        8714        8714        8714
  grid # 5        1192        1192        1192        1192        1192        1192        1192
  grid # 6        9132        9132        5922        5922        5922        5922        5922
  grid # 7       23034       32968       13950       13950       13950       13950       13950
  grid # 8         722        1150         748         748         748         748         748
  grid # 9         366        2198         394         394         394         394         394
   
  number of gridpoints: 
     atom           C8          C9         C10         C11         C12         C13         C14
  grid # 1          91          79          90          92          92          92          90
  grid # 2         277         322         280         280         277         283         278
  grid # 3           6           6           6           6           6           6           6
  grid # 4        8714        8714        8714        8714        8714        8714        8714
  grid # 5        1192        1192        1192        1192        1192        1192        1192
  grid # 6        5922        5922        5922        5922        5922        5922        5922
  grid # 7       13950       13950       13950       13950       13950       13950       13950
  grid # 8         748         748         748         748         748         748         748
  grid # 9         394         394         394         394         394         394         394
   
  number of gridpoints: 
     atom          C15         C16         C17         C18         C19         C20         C21
  grid # 1          90          98          92          96          95          93          97
  grid # 2         381         352         345         326         326         344         350
  grid # 3           7           6          15          32          32          14           8
  grid # 4        8714        8714        8714        8714        8714        8714        8714
  grid # 5        1192        1192        1192        1192        1192        1192        1192
  grid # 6        5922        5922        5922        5922        5922        5922        5922
  grid # 7       13950       13950       13950       13950       13950       13950       13950
  grid # 8         748         748         748         748         748         748         748
  grid # 9         394         394         394         394         394         394         394
   
  number of gridpoints: 
     atom          C22         C23         C24         C25         C26         C27         C28
  grid # 1          97          93          99          92          98          91          82
  grid # 2         362         328         359         326         361         308         240
  grid # 3          12          21          11          16          10           6           6
  grid # 4        8714        8714        8714        8714        8714        8714        8714
  grid # 5        1192        1192        1192        1192        1192        1192        1192
  grid # 6        5922        5922        5922        5922        5922        5922        5922
  grid # 7       13950       13950       13950       13950       13950       13950       13950
  grid # 8         748         748         748         748         748         748         748
  grid # 9         394         394         394         394         394         394         394
   
  number of gridpoints: 
     atom          C29         C30         C31         C32         C33         C34         C35
  grid # 1          81          83          91          80          81          91          81
  grid # 2         243         238         308         246         247         304         246
  grid # 3           6           6           6           6           6           6           6
  grid # 4        8714        8714        8714        8714        8714        8714        8714
  grid # 5        1192        1192        1192        1192        1192        1192        1192
  grid # 6        5922        5922        5922        5922        5922        5922        5922
  grid # 7       13950       13950       13950       13950       13950       13950       13950
  grid # 8         748         748         748         748         748         748         748
  grid # 9         394         394         394         394         394         394         394
   
  number of gridpoints: 
     atom          O36         C37         O38         C39         H40         H41         H42
  grid # 1         115          76         119          76          99         106         103
  grid # 2         434         226         453         229         423         439         414
  grid # 3          11           6          44           6          71         148          39
  grid # 4        8714        8714        8714        8714        8714        8714        8714
  grid # 5        1192        1192        1192        1192        1192        1192        1192
  grid # 6        5922        5922        5922        5922        5922        5922        5922
  grid # 7       23382       13950       23382       13950       15206       15206       15206
  grid # 8         774         748         774         748         786         786         786
  grid # 9         416         394         416         394         420         420         420
   
  number of gridpoints: 
     atom          H43         H44         H45         H46         H47         H48         H49
  grid # 1         112         110         112         110         112         110         103
  grid # 2         457         447         458         454         458         451         434
  grid # 3         320         232         331         251         328         247         144
  grid # 4        8714        8714        8714        8714        8714        8714        8714
  grid # 5        1192        1192        1192        1192        1192        1192        1192
  grid # 6        5922        5922        5922        5922        5922        5922        5922
  grid # 7       15206       15206       15206       15206       15206       15206       15206
  grid # 8         786         786         786         786         786         786         786
  grid # 9         420         420         420         420         420         420         420
   
  number of gridpoints: 
     atom          H50         H51         H52         H53         H54         H55         H56
  grid # 1         106          99          96         102         110         111         110
  grid # 2         439         413         403         426         452         452         455
  grid # 3         145          63          45         100         243         269         261
  grid # 4        8714        8714        8714        8714        8714        8714        8714
  grid # 5        1192        1192        1192        1192        1192        1192        1192
  grid # 6        5922        5922        5922        5922        5922        5922        5922
  grid # 7       15206       15206       15206       15206       15206       15206       15206
  grid # 8         786         786         786         786         786         786         786
  grid # 9         420         420         420         420         420         420         420
   
  number of gridpoints: 
     atom          H57         H58         H59         H60         H61         H62         H63
  grid # 1         112         110         112         105         103         112         113
  grid # 2         459         451         458         448         433         447         446
  grid # 3         334         251         328         172         140         259         261
  grid # 4        8714        8714        8714        8714        8714        8714        8714
  grid # 5        1192        1192        1192        1192        1192        1192        1192
  grid # 6        5922        5922        5922        5922        5922        5922        5922
  grid # 7       15206       15206       15206       15206       15206       15206       15206
  grid # 8         786         786         786         786         786         786         786
  grid # 9         420         420         420         420         420         420         420
   
  number of gridpoints: 
     atom          H64         H65         H66         H67         H68         H69         H70
  grid # 1         105         104         105         107         107         110         105
  grid # 2         428         420         429         446         445         455         437
  grid # 3         128          66          86         247         220         320         226
  grid # 4        8714        8714        8714        8714        8714        8714        8714
  grid # 5        1192        1192        1192        1192        1192        1192        1192
  grid # 6        5922        5922        5922        5922        5922        5922        5922
  grid # 7       15206       15206       15206       15206       15206       15206       15206
  grid # 8         786         786         786         786         786         786         786
  grid # 9         420         420         420         420         420         420         420
   
  number of gridpoints: 
     atom          H71         H72         H73         H74         H75         H76         H77
  grid # 1         108         104         105         108         109         107         106
  grid # 2         444         435         440         453         448         429         442
  grid # 3         237         121         242         324         257         117         242
  grid # 4        8714        8714        8714        8714        8714        8714        8714
  grid # 5        1192        1192        1192        1192        1192        1192        1192
  grid # 6        5922        5922        5922        5922        5922        5922        5922
  grid # 7       15206       15206       15206       15206       15206       15206       15206
  grid # 8         786         786         786         786         786         786         786
  grid # 9         420         420         420         420         420         420         420
   
  number of gridpoints: 
     atom          H78         H79         H80         H81         H82         H83         H84
  grid # 1         108          98         108         111         110         109         106
  grid # 2         446         406         445         459         456         443         446
  grid # 3         243          73         238         340         324         222         240
  grid # 4        8714        8714        8714        8714        8714        8714        8714
  grid # 5        1192        1192        1192        1192        1192        1192        1192
  grid # 6        5922        5922        5922        5922        5922        5922        5922
  grid # 7       15206       15206       15206       15206       15206       15206       15206
  grid # 8         786         786         786         786         786         786         786
  grid # 9         420         420         420         420         420         420         420
   
  number of gridpoints: 
     atom          H85         H86         H87         H88         H89         H90         H91
  grid # 1         110         110         110         111         112         112         111
  grid # 2         457         456         458         451         449         463         451
  grid # 3         272         324         334         304         315         367         314
  grid # 4        8714        8714        8714        8714        8714        8714        8714
  grid # 5        1192        1192        1192        1192        1192        1192        1192
  grid # 6        5922        5922        5922        5922        5922        5922        5922
  grid # 7       15206       15206       15206       15206       15206       15206       15206
  grid # 8         786         786         786         786         786         786         786
  grid # 9         420         420         420         420         420         420         420
   
  number of gridpoints: 
     atom          H92       total
  grid # 1         111       10047
  grid # 2         449       35631
  grid # 3         304       12798
  grid # 4        8714      801688
  grid # 5        1192      109664
  grid # 6        5922      551244
  grid # 7       15206     1396934
  grid # 8         786       71258
  grid # 9         420       39446
   
  end of program grid
   
 Time(grid)  user:     568.139  user+sys:     568.139  wallclock:     288.398
  
  start of program rwr
  
  end of program rwr
   
 Time(rwr)  user:      23.783  user+sys:      23.783  wallclock:      30.212
  
  start of program scf
  
 number of electrons..........        312
 number of alpha electrons....        156
 number of beta electrons.....        156
 number of orbitals, total....        671
 number of doubly-occ'd orbs..        156
 number of open shell orbs....          0
 number of occupied orbitals..        156
 number of virtual orbitals...        515
 number of hamiltonians.......          1
 number of shells.............          1
 SCF type: DFT=Becke_3_Parameter/HF+Slater+Becke88+PW91+PW-GGAIIC (B3PW91-D3)
 Energy computed using pseudospectral method.
 Convergence Criterion:
    Energy (econv):       1.00E-05
    RMS density (dconv):  5.00E-06
  
       i  u  d  i  g                   
       t  p  i  c  r                                 RMS    maximum
       e  d  i  u  i                       energy  density   DIIS  
       r  t  s  t  d       total energy    change  change    error 
  
etot    1  N  N  5  M   -1978.87765591704           2.1E-03  1.3E-01
etot    2  Y  Y  6  M   -1982.23130108417  3.4E+00  2.9E-03  8.7E-02
etot    3  Y  Y  6  M   -1983.09939179411  8.7E-01  1.4E-03  5.1E-02
etot    4  N  Y  2  U   -1983.51299383119  4.1E-01  8.1E-04  4.5E-02
etot    5  Y  Y  6  M   -1983.59503865218  8.2E-02  5.1E-04  2.7E-02
etot    6  N  Y  2  U   -1983.60244384075  7.4E-03  4.7E-04  1.3E-02
etot    7  Y  Y  6  M   -1983.60712101799  4.7E-03  5.8E-05  4.6E-03
etot    8  Y  Y  6  M   -1983.60856185379  1.4E-03  1.4E-05  3.0E-04
etot    9  N  Y  2  U   -1983.60931531951  7.5E-04  8.7E-06  1.7E-04
etot   10  N  Y  2  U   -1983.60932194923  6.6E-06  4.6E-06  4.4E-05
etot   11  N  N  2  U   -1983.60932251471  5.7E-07  0.0E+00  0.0E+00
 
  Computing the dispersion energy correction and its gradients...
  
  
 Energy components, in hartrees:
   (A)  Nuclear repulsion............    5669.68417304548
   (E)  Total one-electron terms.....  -14049.82044842504
   (F)    Electron-nuclear...........  -15941.38479914990
   (H)    Kinetic....................    1891.56435072485
   (I)  Total two-electron terms.....    6396.52695286484
   (J)    Coulomb....................    6659.08895141071
   (K)    Exchange+Correlation.......    -262.56199854586
   (L)  Electronic energy............   -7653.29349556020  (E+I)
   (N0) D3 correction................      -0.16261070879
   (N)  Total energy.................   -1983.77193322351  (A+L+N0)
   (O)  Gas phase energy.............   -1983.77193322351
  
 SCFE: SCF energy: DFT(b3pw91-d3)     -1983.77193322351 hartrees   iterations:  11
  
 
 HOMO energy:    -0.13115
 LUMO energy:    -0.02667
 
  Orbital energies (hartrees): 
   -77.04059   -19.17162   -19.16219   -10.23945   -10.23759   -10.23525
   -10.22984   -10.18861   -10.18239   -10.17977   -10.17811   -10.17176
   -10.17099   -10.17003   -10.16757   -10.16612   -10.16554   -10.16390
   -10.16086   -10.15703   -10.15502   -10.15478   -10.15449   -10.15398
   -10.15355   -10.15321   -10.15316   -10.15275   -10.15257   -10.15108
   -10.15027   -10.14917   -10.14903   -10.14798   -10.14788   -10.14739
   -10.14680   -10.13849    -6.54272    -4.70087    -4.70001    -4.69749
    -3.22245    -1.95994    -1.94126    -1.93899    -1.07890    -1.06705
    -0.87077    -0.84793    -0.82762    -0.82015    -0.80703    -0.80031
    -0.78040    -0.77479    -0.75958    -0.74628    -0.72981    -0.72882
    -0.72856    -0.72532    -0.70779    -0.70424    -0.68134    -0.67434
    -0.66814    -0.66501    -0.65252    -0.62497    -0.61517    -0.59982
    -0.59158    -0.59008    -0.58781    -0.58343    -0.58079    -0.55358
    -0.54573    -0.53777    -0.53645    -0.52752    -0.52387    -0.51477
    -0.50782    -0.48611    -0.48251    -0.47839    -0.46864    -0.46233
    -0.46134    -0.45083    -0.44678    -0.43580    -0.43365    -0.43280
    -0.43034    -0.42640    -0.42484    -0.42373    -0.42069    -0.41727
    -0.41684    -0.41497    -0.41445    -0.40782    -0.40451    -0.39954
    -0.39580    -0.39264    -0.39075    -0.38162    -0.37612    -0.37287
    -0.36895    -0.36780    -0.36608    -0.36354    -0.36007    -0.35822
    -0.35397    -0.35140    -0.34868    -0.34798    -0.34394    -0.33744
    -0.33417    -0.33226    -0.32972    -0.32730    -0.32570    -0.32504
    -0.32418    -0.31928    -0.31610    -0.31424    -0.30965    -0.30614
    -0.30101    -0.29966    -0.29787    -0.29507    -0.28653    -0.28386
    -0.28172    -0.27322    -0.26241    -0.25185    -0.22917    -0.22286
    -0.20645    -0.18168    -0.17878    -0.16016    -0.15763    -0.13115
    -0.02667    -0.00726     0.00053     0.01145     0.01788     0.03904
     0.05031     0.06871     0.07608     0.08205
 
  end of program scf
   
 Time(scf)  user:     573.238  user+sys:     573.238  wallclock:     305.965
  
  start of program der1a
  
  end of program der1a
   
 Time(der1a)  user:      17.715  user+sys:      17.715  wallclock:       9.793
  
  start of program rwr
  
  end of program rwr
   
 Time(rwr)  user:      26.900  user+sys:      26.900  wallclock:      31.732
  
  start of program der1b
  
   
  forces (hartrees/bohr) : total     
   
 atom  label           x              y              z
 ---- --------   -------------  -------------  -------------
    1 P1          2.644652E-02  -1.196545E-02   6.082028E-02
    2 Pd2         5.147578E-04  -2.011316E-03   3.814620E-03
    3 C3          1.247519E-02   3.268640E-03  -2.043271E-02
    4 C4         -9.870882E-03  -1.189566E-02  -3.962205E-03
    5 C5          3.688851E-03  -4.527039E-03  -3.365599E-03
    6 C6          9.559342E-03   3.802243E-04  -3.589562E-03
    7 C7          4.629715E-03   4.052546E-03  -4.307909E-04
    8 C8         -4.515215E-03   1.140278E-02   1.340035E-02
    9 C9         -2.100889E-02   3.427402E-02  -3.647123E-02
   10 C10        -6.117188E-03  -5.996848E-03   8.986356E-04
   11 C11        -6.148399E-03   8.321648E-04  -1.078016E-04
   12 C12        -5.269862E-03   7.847081E-03  -3.167873E-03
   13 C13         7.734237E-04   6.361668E-03  -1.299459E-03
   14 C14         1.394170E-02   1.454684E-03   3.785211E-03
   15 C15        -2.489967E-03   3.278618E-03  -1.716068E-02
   16 C16        -2.652809E-03  -2.613514E-03  -4.192755E-02
   17 C17        -8.218065E-04  -1.271823E-02  -2.818184E-02
   18 C18        -2.602783E-03  -2.240762E-03  -5.044603E-03
   19 C19        -2.309782E-03  -1.180813E-03  -7.654444E-03
   20 C20        -1.939576E-02  -2.627030E-02  -1.681949E-02
   21 C21        -1.241874E-03   5.042477E-03   5.896996E-02
   22 C22         9.188955E-04   2.062112E-03   7.048191E-03
   23 C23        -2.000582E-04  -1.294725E-03   4.759162E-03
   24 C24        -5.504048E-03   2.486505E-03  -1.211542E-02
   25 C25         1.436768E-03  -2.043928E-03   5.776461E-03
   26 C26         2.427808E-03  -2.033084E-03   9.787197E-03
   27 C27         1.926644E-03  -8.654302E-03  -1.062408E-02
   28 C28        -4.195916E-03  -1.404160E-02  -5.794575E-04
   29 C29         8.097393E-03   5.393858E-03   2.084147E-03
   30 C30        -8.021741E-03  -1.048096E-02  -5.974526E-04
   31 C31        -3.393240E-03   9.463193E-03  -8.341302E-03
   32 C32         2.256665E-03   1.191785E-02   7.095110E-03
   33 C33        -2.094825E-03  -1.006072E-02   4.824962E-03
   34 C34        -3.001790E-03   1.923343E-03   4.688464E-03
   35 C35         6.724366E-03   7.066408E-03   5.283146E-03
   36 O36         1.591715E-02   7.311979E-03   1.725492E-02
   37 C37        -5.456171E-03  -8.685510E-03   1.206028E-03
   38 O38         7.208668E-03   1.125517E-02   2.635815E-02
   39 C39         3.326720E-03   6.532393E-03  -8.247891E-03
   40 H40         2.103610E-03  -6.690354E-03   2.599389E-03
   41 H41         3.609268E-03   6.885166E-03   4.992100E-03
   42 H42        -3.882503E-03   7.291287E-03  -8.047998E-03
   43 H43        -5.328802E-03   9.736235E-03   1.214019E-03
   44 H44         1.836958E-03  -4.052436E-03   8.634819E-03
   45 H45        -8.296054E-03  -2.133916E-03   6.911494E-03
   46 H46        -2.732672E-03   4.734718E-03  -8.467159E-03
   47 H47        -8.397033E-03  -4.815580E-03  -6.444516E-03
   48 H48         1.914452E-03  -4.858631E-03   7.728246E-03
   49 H49         2.436088E-03  -1.087582E-02  -1.549380E-03
   50 H50        -4.536674E-03   3.128020E-03  -7.606217E-03
   51 H51        -1.758042E-03   6.425697E-03   1.046302E-02
   52 H52         5.211596E-03   1.854027E-03  -1.944542E-02
   53 H53         5.163241E-03   8.464881E-03   6.437280E-03
   54 H54        -4.229094E-05   1.740723E-03   9.278387E-03
   55 H55         1.045652E-02  -1.797936E-03  -4.110773E-03
   56 H56         3.618599E-04  -1.912563E-03  -9.912526E-03
   57 H57         5.325134E-03  -7.396757E-03   6.275665E-03
   58 H58        -4.934458E-04   1.087981E-03   9.460771E-03
   59 H59        -3.405433E-03  -1.055803E-02  -3.381698E-03
   60 H60         7.774333E-04  -2.434011E-03  -9.016312E-03
   61 H61        -8.238905E-03  -1.247437E-03   6.584818E-03
   62 H62         5.182305E-03   5.637181E-03   7.275864E-03
   63 H63         2.446229E-03   1.667423E-03   9.434738E-03
   64 H64         4.178494E-03  -2.042214E-03  -6.827650E-03
   65 H65        -3.499527E-03   2.694394E-03  -7.705011E-03
   66 H66         1.860180E-04   7.832923E-03   9.035943E-03
   67 H67        -1.616231E-04   4.350125E-03  -9.383900E-03
   68 H68         9.290565E-03   3.897817E-03   5.376883E-03
   69 H69        -6.436133E-03   6.325360E-03   4.889163E-03
   70 H70        -4.689026E-03   3.518782E-03  -8.397457E-03
   71 H71        -9.103278E-03   3.675529E-03   3.880151E-03
   72 H72        -2.851259E-03  -9.450563E-03  -1.500369E-03
   73 H73         4.030498E-03   5.790686E-05  -9.671028E-03
   74 H74         9.350706E-03  -2.739797E-03   5.308254E-03
   75 H75         1.374306E-03   9.215949E-03  -1.819571E-03
   76 H76         2.499702E-03  -8.462248E-03   9.198145E-03
   77 H77         2.106250E-04  -3.970831E-03  -9.511706E-03
   78 H78         7.163726E-03  -6.526500E-03   3.416411E-03
   79 H79        -1.346001E-02  -1.182141E-02   9.963506E-03
   80 H80        -8.758776E-03   5.550118E-03   2.178682E-03
   81 H81         9.401911E-03   5.880440E-03   3.482443E-03
   82 H82         9.014994E-04   1.063726E-03  -1.038481E-02
   83 H83         8.140352E-03  -3.984584E-03  -6.580905E-03
   84 H84        -9.819183E-03   3.624202E-03   1.984166E-03
   85 H85         8.928864E-04  -1.085523E-02   2.954073E-03
   86 H86        -5.357036E-05  -8.106465E-04  -1.048332E-02
   87 H87        -7.878548E-03  -9.937815E-03   6.265228E-03
   88 H88         1.052782E-02  -4.381125E-03  -2.692319E-03
   89 H89        -7.157588E-03   9.221892E-03  -2.593205E-03
   90 H90         4.661989E-03   1.094801E-02  -7.732799E-03
   91 H91         7.437890E-03  -9.400791E-03   6.756842E-04
   92 H92        -1.089197E-02   2.661043E-03   1.537932E-03
 -------------   -------------  -------------  -------------
     total        1.158907E-03   9.072899E-04   1.904775E-03
   
  end of program der1b
   
 Time(der1b)  user:     219.420  user+sys:     219.420  wallclock:     115.328
  
  start of program geopt
  
 ----------------------------------------------------------------------------
  Geometry optimization step  1
  Total energy:     -1983.77193322351 hartrees
 ----------------------------------------------------------------------------
  
  
  Level shifts adjusted to satisfy step-size constraints
   Step size:    0.3000120
   Cos(theta):   0.9608694
   Final level shift:  -4.2210566E-01
  
  gradient maximum:        7.0016E-02 .  (  2.2500E-03 )
  gradient rms:            1.3353E-02 .  (  1.5000E-03 )
  displacement maximum:    8.4379E-02 .  (  9.0000E-03 )
  displacement rms:        1.5281E-02 .  (  6.0000E-03 )
  
  predicted energy change:  -4.7885E-02
  step size:     0.26555
  trust radius:  0.30000
  
  molecular structure not yet converged...
  
  center of mass moved by:
     x:     3.7124E-02     y:     6.7779E-02     z:     1.9240E-02
  
  new geometry: 
                                   angstroms
  atom               x                 y                 z
  P1            0.0076389967      0.0786864582     -0.0065533705 
  Pd2           0.0934936921      0.1074517953      2.2066675689 
  C3            1.7025649252     -0.0221639083     -0.7630991047 
  C4            2.2386001304     -1.4385255052     -1.0308162899 
  C5            3.5243588808     -1.3817857405     -1.8665816597 
  C6            4.6035397529     -0.5603681610     -1.1494242108 
  C7            4.0809755543      0.8396074694     -0.8009927971 
  C8            2.7812382657      0.7577292609      0.0116361671 
  C9           -0.7583957821      1.5299340072     -0.7615330967 
  C10          -2.2216227462      1.6755843318     -0.3288450030 
  C11          -2.9254458857      2.8586545207     -0.9992485603 
  C12          -2.1796717122      4.1627897286     -0.7075999648 
  C13          -0.7225648644      4.0475800703     -1.1666610059 
  C14          -0.0174905225      2.8540187031     -0.5047329822 
  C15          -0.9539838222     -1.3412032071     -0.6420077343 
  C16          -1.6897105224     -2.2515291762      0.1790995133 
  C17          -2.4924970859     -3.2298906460     -0.4522342097 
  C18          -2.5860893731     -3.2703746220     -1.8462475123 
  C19          -1.8937967907     -2.3643015634     -2.6351102326 
  C20          -1.0758088744     -1.3934092026     -2.0526347468 
  C21          -1.6806983112     -2.3548520289      1.6354834015 
  C22          -2.8244729971     -2.0194163461      2.4151832743 
  C23          -2.7712307396     -2.1531962859      3.8076111350 
  C24          -1.6491769470     -2.6285026780      4.4820811860 
  C25          -0.5477209039     -2.9895670667      3.7061276859 
  C26          -0.5362263105     -2.8609722320      2.3086243184 
  C27           0.6567556097     -3.4483240007      1.5752896551 
  C28           0.5177709846     -4.9833359671      1.5709014328 
  C29           2.0171943050     -3.0420918289      2.1619035078 
  C30          -5.3468891741     -2.2688907763      2.2003344797 
  C31          -4.1122225981     -1.4065585539      1.8826453072 
  C32          -4.3533331993     -0.0250508670      2.5188214505 
  C33          -1.4774806443     -4.2308987574      6.4124231288 
  C34          -1.6268338150     -2.7622306118      5.9894340712 
  C35          -0.5232551569     -1.8906507903      6.6065455498 
  O36          -0.3862489839     -0.5180994254     -2.8282269585 
  C37          -0.3612365661     -0.5920152228     -4.2363709017 
  O38          -3.1133317887     -4.1558955592      0.3245020957 
  C39          -3.7554020029     -5.2884328132     -0.2189612837 
  H40           1.5884617699      0.4754158504     -1.7483150894 
  H41           1.4862756596     -2.0634702729     -1.5499478808 
  H42           2.4558184756     -1.9443301957     -0.0719838938 
  H43           3.8937482768     -2.4093369531     -2.0643155948 
  H44           3.3058078876     -0.9211502887     -2.8525449750 
  H45           5.5120217581     -0.4847966084     -1.7820634826 
  H46           4.8999889439     -1.0808096226     -0.2151295503 
  H47           4.8475679081      1.3981721740     -0.2256703149 
  H48           3.8993391164      1.4116245347     -1.7349690303 
  H49           2.4343769287      1.7761158477      0.2696283690 
  H50           2.9788535610      0.2531754282      0.9783306990 
  H51          -0.7756522049      1.3487262836     -1.8542981432 
  H52          -2.2400711486      1.8289589753      0.7644329619 
  H53          -2.7768156204      0.7409781649     -0.5439997549 
  H54          -2.9727730525      2.6920404777     -2.0957881331 
  H55          -3.9719687739      2.9277971042     -0.6371046170 
  H56          -2.2061549366      4.3709016884      0.3820374945 
  H57          -2.6802347685      5.0136001420     -1.2144567686 
  H58          -0.6938385379      3.9238558758     -2.2696042888 
  H59          -0.1741363244      4.9832112689     -0.9327104485 
  H60           0.0555580878      3.0242026330      0.5893735962 
  H61           1.0145861136      2.7954133221     -0.9026281828 
  H62          -3.1990428832     -4.0273056163     -2.3467346079 
  H63          -2.0103855500     -2.4334512473     -3.7222007287 
  H64          -3.6418220860     -1.8721205370      4.4095625647 
  H65           0.3222495606     -3.4011295186      4.2254917547 
  H66           0.6309851860     -3.1541852037      0.5114025915 
  H67           0.5430722794     -5.3989962782      2.5970357356 
  H68          -0.4404012962     -5.2926952729      1.1086755757 
  H69           1.3390408937     -5.4571451708      0.9969821254 
  H70           2.2211490888     -3.5245635796      3.1363378411 
  H71           2.8420387990     -3.3523213712      1.4918956124 
  H72           2.0800811322     -1.9474892543      2.3109548147 
  H73          -5.6196139397     -2.2295710478      3.2721120813 
  H74          -6.2283553101     -1.9167523384      1.6297241519 
  H75          -5.1836139264     -3.3331044277      1.9504154019 
  H76          -4.0677775602     -1.3014617956      0.7819164010 
  H77          -4.5733207350     -0.0954266415      3.6013846590 
  H78          -5.2098223698      0.4902282129      2.0399462290 
  H79          -3.4683029237      0.6204620654      2.4208872150 
  H80          -0.5091476604     -4.6554473166      6.0848491297 
  H81          -2.2837269468     -4.8513317571      5.9754776133 
  H82          -1.5296097782     -4.3344061466      7.5141207621 
  H83          -2.5969658092     -2.3992718111      6.3895067040 
  H84           0.4850637207     -2.2198025700      6.2902187250 
  H85          -0.6430759515     -0.8314515080      6.3063718465 
  H86          -0.5542891788     -1.9345497273      7.7129914309 
  H87           0.3199021024      0.2061308314     -4.5809612714 
  H88          -1.3751396436     -0.4136741990     -4.6448733195 
  H89           0.0310426486     -1.5770563352     -4.5567276059 
  H90          -4.0714309055     -5.9180095430      0.6313243149 
  H91          -4.6457674557     -4.9781577463     -0.8005159628 
  H92          -3.0473430304     -5.8608837384     -0.8504201431 
   
 
  bond lengths (angstroms):
 
 P1      -Pd2     :   2.215072      P1      -C3      :   1.858845
 P1      -C9      :   1.806356      P1      -C15     :   1.828827
 C3      -C4      :   1.537884      C3      -C8      :   1.540125
 C3      -H40     :   1.109620      C4      -C5      :   1.534568
 C4      -H41     :   1.107269      C4      -H42     :   1.105614
 C5      -C6      :   1.534169      C5      -H43     :   1.109689
 C5      -H44     :   1.109988      C6      -C7      :   1.534409
 C6      -H45     :   1.109632      C6      -H46     :   1.109796
 C7      -C8      :   1.535053      C7      -H47     :   1.109349
 C7      -H48     :   1.110183      C8      -H49     :   1.106338
 C8      -H50     :   1.108208      C9      -C10     :   1.532797
 C9      -C14     :   1.538859      C9      -H51     :   1.107822
 C10     -C11     :   1.531164      C10     -H52     :   1.104138
 C10     -H53     :   1.108160      C11     -C12     :   1.530362
 C11     -H54     :   1.110135      C11     -H55     :   1.109567
 C12     -C13     :   1.532048      C12     -H56     :   1.109649
 C12     -H57     :   1.109660      C13     -C14     :   1.536186
 C13     -H58     :   1.110233      C13     -H59     :   1.109465
 C14     -H60     :   1.109670      C14     -H61     :   1.107672
 C15     -C16     :   1.429757      C15     -C20     :   1.416840
 C16     -C17     :   1.414298      C16     -C21     :   1.460072
 C17     -C18     :   1.397738      C17     -O38     :   1.358764
 C18     -C19     :   1.386558      C18     -H62     :   1.095054
 C19     -C20     :   1.396787      C19     -H63     :   1.095509
 C20     -O36     :   1.357646      C21     -C22     :   1.424314
 C21     -C26     :   1.420948      C22     -C23     :   1.399853
 C22     -C31     :   1.522331      C23     -C24     :   1.392778
 C23     -H64     :   1.095116      C24     -C25     :   1.394875
 C24     -C34     :   1.513438      C25     -C26     :   1.403454
 C25     -H65     :   1.093605      C26     -C27     :   1.518541
 C27     -C28     :   1.541297      C27     -C29     :   1.536208
 C27     -H66     :   1.104100      C28     -H67     :   1.107414
 C28     -H68     :   1.107903      C28     -H69     :   1.108315
 C29     -H70     :   1.106300      C29     -H71     :   1.107033
 C29     -H72     :   1.106493      C30     -C31     :   1.539138
 C30     -H73     :   1.106631      C30     -H74     :   1.107511
 C30     -H75     :   1.105291      C31     -C32     :   1.539941
 C31     -H76     :   1.106628      C32     -H77     :   1.106928
 C32     -H78     :   1.108336      C32     -H79     :   1.099798
 C33     -C34     :   1.535647      C33     -H80     :   1.106894
 C33     -H81     :   1.107200      C33     -H82     :   1.107777
 C34     -C35     :   1.535697      C34     -H83     :   1.110384
 C35     -H84     :   1.106847      C35     -H85     :   1.107413
 C35     -H86     :   1.107751      O36     -C37     :   1.410304
 C37     -H87     :   1.104414      C37     -H88     :   1.107556
 C37     -H89     :   1.107618      O38     -C39     :   1.410761
 C39     -H90     :   1.104186      C39     -H91     :   1.107803
 C39     -H92     :   1.108056
 
  bond angles:
 
 C3      -P1      -Pd2     : 111.840291  C9      -P1      -Pd2     : 115.062815
 C9      -P1      -C3      : 105.079653  C15     -P1      -Pd2     : 112.187436
 C15     -P1      -C3      : 107.211846  C15     -P1      -C9      : 104.806304
 C4      -C3      -P1      : 116.016826  C8      -C3      -P1      : 113.979599
 C8      -C3      -C4      : 108.048255  H40     -C3      -P1      : 104.079963
 H40     -C3      -C4      : 107.113599  H40     -C3      -C8      : 106.952787
 C5      -C4      -C3      : 110.658496  H41     -C4      -C3      : 111.382826
 H41     -C4      -C5      : 109.560707  H42     -C4      -C3      : 109.806633
 H42     -C4      -C5      : 108.942722  H42     -C4      -H41     : 106.372338
 C6      -C5      -C4      : 110.768103  H43     -C5      -C4      : 109.981321
 H43     -C5      -C6      : 110.177207  H44     -C5      -C4      : 109.520553
 H44     -C5      -C6      : 109.361940  H44     -C5      -H43     : 106.950020
 C7      -C6      -C5      : 110.799142  H45     -C6      -C5      : 110.234703
 H45     -C6      -C7      : 110.252309  H46     -C6      -C5      : 109.290026
 H46     -C6      -C7      : 109.127360  H46     -C6      -H45     : 107.050491
 C8      -C7      -C6      : 111.094221  H47     -C7      -C6      : 109.987788
 H47     -C7      -C8      : 109.719186  H48     -C7      -C6      : 109.559543
 H48     -C7      -C8      : 109.530745  H48     -C7      -H47     : 106.853669
 C7      -C8      -C3      : 110.715553  H49     -C8      -C3      : 111.336638
 H49     -C8      -C7      : 109.865365  H50     -C8      -C3      : 109.459488
 H50     -C8      -C7      : 109.577550  H50     -C8      -H49     : 105.758548
 C10     -C9      -P1      : 111.296112  C14     -C9      -P1      : 114.667785
 C14     -C9      -C10     : 109.313931  H51     -C9      -P1      : 106.706397
 H51     -C9      -C10     : 106.207871  H51     -C9      -C14     : 108.231102
 C11     -C10     -C9      : 112.869058  H52     -C10     -C9      : 107.978476
 H52     -C10     -C11     : 108.573621  H53     -C10     -C9      : 110.079078
 H53     -C10     -C11     : 109.654518  H53     -C10     -H52     : 107.519357
 C12     -C11     -C10     : 110.548304  H54     -C11     -C10     : 109.640003
[...]
    H43      X    -0.00009  -0.00002  -0.00004   0.00001   0.00004  -0.00016
    H43      Y     0.00026   0.00006   0.00012  -0.00001  -0.00007   0.00041
    H43      Z     0.00008   0.00002   0.00003  -0.00000  -0.00002   0.00011
    H44      X     0.00000  -0.00000   0.00001  -0.00002  -0.00002   0.00002
    H44      Y    -0.00001   0.00001  -0.00008   0.00000   0.00027  -0.00018
    H44      Z     0.00001  -0.00001   0.00013   0.00000  -0.00040   0.00025
    H45      X    -0.00018   0.00004  -0.00031  -0.00006   0.00002  -0.00022
    H45      Y    -0.00001   0.00000  -0.00002  -0.00001  -0.00001  -0.00001
    H45      Z     0.00011  -0.00002   0.00019   0.00003  -0.00001   0.00012
    H46      X    -0.00000  -0.00000   0.00003  -0.00003  -0.00004   0.00003
    H46      Y     0.00004   0.00001  -0.00005   0.00009   0.00007  -0.00002
    H46      Z    -0.00005  -0.00000   0.00007  -0.00013  -0.00012   0.00004
    H47      X    -0.00012   0.00005  -0.00020  -0.00018  -0.00003  -0.00012
    H47      Y    -0.00006   0.00003  -0.00010  -0.00010  -0.00003  -0.00004
    H47      Z    -0.00009   0.00004  -0.00016  -0.00012  -0.00006  -0.00006
    H48      X    -0.00000  -0.00000   0.00001   0.00001  -0.00001   0.00001
    H48      Y     0.00001   0.00002  -0.00011   0.00009   0.00011  -0.00008
    H48      Z    -0.00001  -0.00003   0.00017  -0.00012  -0.00015   0.00013
    H49      X    -0.00001  -0.00003   0.00011   0.00004  -0.00002   0.00001
    H49      Y     0.00008   0.00013  -0.00039  -0.00018  -0.00002   0.00003
    H49      Z     0.00003   0.00005  -0.00015  -0.00001   0.00000   0.00000
    H50      X     0.00000  -0.00000   0.00007  -0.00007  -0.00005   0.00003
    H50      Y     0.00006   0.00002  -0.00016   0.00034   0.00010  -0.00006
    H50      Z    -0.00008  -0.00003   0.00023  -0.00043  -0.00017   0.00007
    H51      X     0.00027  -0.00004   0.00004  -0.00001  -0.00008   0.00001
    H51      Y     0.00001  -0.00002   0.00006   0.00003   0.00007   0.00004
    H51      Z     0.00097   0.00010   0.00010   0.00007  -0.00060   0.00028
    H52      X    -0.00286   0.00028  -0.00038   0.00004   0.00001   0.00000
    H52      Y    -0.00028  -0.00006   0.00010   0.00001   0.00000   0.00000
    H52      Z     0.00180   0.00106  -0.00060   0.00003  -0.00005   0.00006
    H53      X    -0.00801  -0.00012  -0.00084  -0.00027   0.00018  -0.00004
    H53      Y    -0.01138  -0.00031  -0.00113  -0.00037   0.00021   0.00003
    H53      Z    -0.00464  -0.00022  -0.00049  -0.00018   0.00010   0.00001
    H54      X    -0.00023   0.00010  -0.00008   0.00000  -0.00006   0.00005
    H54      Y     0.00025  -0.00005   0.00004  -0.00000   0.00004  -0.00004
    H54      Z    -0.00062   0.00051  -0.00041   0.00003  -0.00027   0.00028
    H55      X    -0.00175  -0.00103   0.00073  -0.00008   0.00005   0.00015
    H55      Y     0.00034   0.00003   0.00002   0.00001   0.00001  -0.00001
    H55      Z     0.00078   0.00051  -0.00034   0.00004  -0.00003  -0.00008
    H56      X     0.00001   0.00003  -0.00008  -0.00000  -0.00001   0.00001
    H56      Y     0.00001   0.00000   0.00001   0.00001  -0.00000   0.00001
    H56      Z    -0.00028   0.00019  -0.00045  -0.00004  -0.00010   0.00009
    H57      X     0.00034   0.00000   0.00014   0.00005  -0.00004   0.00012
    H57      Y    -0.00056  -0.00001  -0.00024  -0.00010   0.00006  -0.00021
    H57      Z     0.00013   0.00000   0.00005   0.00002  -0.00001   0.00004
    H58      X     0.00004   0.00000   0.00002  -0.00001  -0.00004   0.00004
    H58      Y     0.00000  -0.00000   0.00000   0.00002   0.00004  -0.00002
    H58      Z     0.00025   0.00009  -0.00006  -0.00006  -0.00024   0.00019
    H59      X    -0.00045  -0.00005  -0.00011  -0.00011  -0.00002  -0.00006
    H59      Y    -0.00056  -0.00003  -0.00021  -0.00019   0.00002  -0.00015
    H59      Z    -0.00020  -0.00001  -0.00007  -0.00006  -0.00001  -0.00004
    H60      X     0.00008   0.00003  -0.00004  -0.00004  -0.00005   0.00003
    H60      Y     0.00001  -0.00001   0.00002  -0.00002  -0.00002   0.00002
    H60      Z     0.00015   0.00007  -0.00010  -0.00032  -0.00020   0.00012
    H61      X    -0.00099  -0.00022   0.00011  -0.00014   0.00027  -0.00017
    H61      Y    -0.00011  -0.00002   0.00001  -0.00001   0.00001  -0.00000
    H61      Z     0.00049   0.00012  -0.00008   0.00008  -0.00013   0.00009
    H62      X    -0.00021  -0.00205  -0.00066  -0.00093   0.33931   0.32974
    H62      Y    -0.00029  -0.00289  -0.00096  -0.00134   0.49177   0.47825
    H62      Z    -0.00017  -0.00174  -0.00058  -0.00084   0.33393   0.31983
    H63      X     0.00001   0.00011   0.00000   0.00003  -0.05184   0.05069
    H63      Y     0.00001   0.00002   0.00000   0.00000  -0.00380   0.00035
    H63      Z     0.00005   0.00121   0.00009   0.00054  -0.66325   0.68060
    H64      X    -0.06337   0.06309   0.77866   0.02657   0.00106   0.00084
    H64      Y     0.02074  -0.02128  -0.26339  -0.00868  -0.00035  -0.00028
    H64      Z     0.03795  -0.03740  -0.46750  -0.01477  -0.00070  -0.00055
    H65      X    -0.00138   0.00184   0.02382  -0.75746  -0.00129  -0.00070
    H65      Y     0.00063  -0.00071  -0.00967   0.29811   0.00049   0.00026
    H65      Z    -0.00108   0.00138   0.01717  -0.49497  -0.00089  -0.00049
    H66      X    -0.00002  -0.00002   0.00009  -0.00122  -0.00000   0.00004
    H66      Y     0.00005  -0.00011  -0.00030   0.00202   0.00026  -0.00001
    H66      Z    -0.00019   0.00050   0.00132  -0.00100  -0.00095   0.00005
    H67      X    -0.00000  -0.00003  -0.00003   0.00049   0.00004  -0.00000
    H67      Y     0.00005  -0.00000  -0.00020   0.00279   0.00001  -0.00002
    H67      Z    -0.00019  -0.00000   0.00039  -0.00716   0.00004   0.00008
    H68      X     0.00012   0.00015  -0.00006  -0.00623  -0.00035   0.00039
    H68      Y     0.00002   0.00007  -0.00006  -0.00082  -0.00006  -0.00003
    H68      Z     0.00007   0.00010  -0.00003  -0.00275  -0.00022   0.00011
    H69      X     0.00001   0.00011  -0.00054  -0.00012  -0.00026  -0.00035
    H69      Y     0.00003  -0.00005   0.00052   0.00062   0.00026   0.00033
    H69      Z     0.00001  -0.00007   0.00042   0.00014   0.00018   0.00022
    H70      X    -0.00003   0.00004   0.00021  -0.00123  -0.00002  -0.00001
    H70      Y     0.00014  -0.00015  -0.00092   0.01104   0.00005   0.00002
    H70      Z    -0.00046   0.00043   0.00275  -0.03823  -0.00023  -0.00011
    H71      X    -0.00011  -0.00021  -0.00098   0.00373  -0.00004  -0.00025
    H71      Y     0.00011   0.00018   0.00090  -0.00468   0.00000   0.00022
    H71      Z     0.00010   0.00017   0.00091  -0.00423   0.00002   0.00020
    H72      X     0.00018   0.00006  -0.00013   0.00183   0.00006   0.00007
    H72      Y     0.00042   0.00010  -0.00048   0.00621   0.00017   0.00011
    H72      Z    -0.00001  -0.00002  -0.00009   0.00109   0.00001  -0.00001
    H73      X    -0.00023  -0.03690   0.00718   0.00001  -0.00014  -0.00003
    H73      Y     0.00085  -0.02481   0.00355   0.00001   0.00000  -0.00000
    H73      Z     0.00273   0.20990  -0.03195  -0.00012   0.00072   0.00022
    H74      X    -0.00140  -0.16324   0.00898   0.00035   0.00021   0.00056
    H74      Y     0.00156   0.03072  -0.00091  -0.00008  -0.00005  -0.00014
    H74      Z    -0.00086  -0.10597   0.00559   0.00020   0.00004   0.00025
    H75      X    -0.00871  -0.32730   0.02415  -0.00004  -0.00078  -0.00043
    H75      Y     0.02048   0.78994  -0.05884   0.00003   0.00191   0.00076
    H75      Z     0.00757   0.27918  -0.02080   0.00003   0.00055   0.00024
    H76      X     0.00591  -0.00895   0.00416   0.00001  -0.00010  -0.00011
    H76      Y     0.00073  -0.00279   0.00005  -0.00001  -0.00003   0.00004
    H76      Z    -0.03024   0.04271  -0.00906   0.00066   0.00021   0.00026
    H77      X     0.06139  -0.00289   0.02303   0.00011   0.00004   0.00003
    H77      Y     0.00462   0.00120   0.00437   0.00007   0.00000  -0.00001
    H77      Z    -0.21143   0.00946  -0.06880  -0.00059  -0.00015  -0.00011
    H78      X     0.16465   0.00047  -0.00229   0.00038   0.00018   0.00038
    H78      Y    -0.06325   0.00087  -0.00099  -0.00015  -0.00009  -0.00015
    H78      Z     0.14111  -0.00025  -0.00097   0.00033   0.00014   0.00027
    H79      X     0.61116  -0.00938   0.04421   0.00025   0.00034   0.00018
    H79      Y     0.64950  -0.01008   0.04679   0.00027   0.00040   0.00022
    H79      Z    -0.04277   0.00072  -0.00127   0.00000  -0.00001  -0.00001
    H80      X    -0.00057   0.00045   0.00938  -0.03211  -0.00004   0.00002
    H80      Y     0.00025  -0.00020  -0.00394   0.01253   0.00002  -0.00001
    H80      Z     0.00011  -0.00010  -0.00197   0.00824   0.00001   0.00001
    H81      X     0.00026   0.00053   0.00259  -0.00727   0.00005   0.00003
    H81      Y     0.00026   0.00058   0.00328  -0.00824   0.00004   0.00003
    H81      Z     0.00007   0.00015   0.00104  -0.00274   0.00002   0.00002
    H82      X    -0.00001  -0.00000  -0.00005  -0.00007  -0.00000   0.00000
    H82      Y     0.00002   0.00006  -0.00035   0.00150   0.00000  -0.00003
    H82      Z     0.00028   0.00006  -0.00465   0.00462  -0.00006  -0.00025
    H83      X    -0.00161   0.00099   0.01786  -0.00265   0.00007   0.00013
    H83      Y     0.00059  -0.00041  -0.00720   0.00053  -0.00003  -0.00005
    H83      Z     0.00080  -0.00057  -0.00932  -0.00145  -0.00003  -0.00005
    H84      X    -0.00133   0.00021   0.00957  -0.02352  -0.00002   0.00007
    H84      Y     0.00039  -0.00004  -0.00255   0.00692   0.00001  -0.00002
    H84      Z     0.00036  -0.00004  -0.00222   0.00634   0.00001   0.00001
    H85      X    -0.00029  -0.00003   0.00011  -0.00217   0.00000  -0.00003
    H85      Y     0.00148   0.00014  -0.00177   0.00919   0.00000   0.00013
    H85      Z    -0.00085  -0.00007   0.00127  -0.00532   0.00000  -0.00004
    H86      X     0.00004  -0.00002  -0.00035  -0.00032  -0.00001  -0.00001
    H86      Y    -0.00001  -0.00008  -0.00138  -0.00005  -0.00002  -0.00007
    H86      Z    -0.00014  -0.00025  -0.00558   0.00226  -0.00007  -0.00031
    H87      X     0.00049   0.00072  -0.00066  -0.00036  -0.01179   0.00825
    H87      Y     0.00067   0.00100  -0.00091  -0.00052  -0.01694   0.01193
    H87      Z    -0.00023  -0.00034   0.00032   0.00019   0.00382  -0.00221
    H88      X     0.00017   0.00014   0.00009  -0.00004  -0.01370   0.01228
    H88      Y    -0.00004  -0.00005   0.00003   0.00003   0.00058  -0.00009
    H88      Z     0.00007   0.00005   0.00005  -0.00001  -0.00441   0.00394
    H89      X    -0.00018  -0.00015   0.00008   0.00001   0.00523  -0.00450
    H89      Y     0.00032   0.00023  -0.00008   0.00004  -0.01094   0.01028
    H89      Z     0.00012   0.00008  -0.00002   0.00002  -0.00315   0.00295
    H90      X     0.00198  -0.01610   0.00175   0.00031  -0.00560  -0.00341
    H90      Y     0.00389  -0.03003   0.00338   0.00053  -0.01078  -0.00666
    H90      Z    -0.00485   0.03732  -0.00416  -0.00068   0.01635   0.01082
    H91      X    -0.00031   0.00865  -0.00021  -0.00006   0.00958   0.00804
    H91      Y     0.00012  -0.00385   0.00012   0.00005  -0.00549  -0.00474
    H91      Z     0.00005   0.00516  -0.00000  -0.00002   0.00663   0.00602
    H92      X     0.00132  -0.00831   0.00080  -0.00014  -0.00909  -0.00766
    H92      Y    -0.00108   0.00774  -0.00062   0.00014   0.00635   0.00520
    H92      Z    -0.00115   0.00822  -0.00067   0.00021   0.00870   0.00772
  
  Number of imaginary frequencies:   0
   
  Writing vibrational animation data to L1_PL344.vib
  Writing IR vibrational spectrum data to L1_PL344_vib.spm
  rotational symmetry number:  1

  rotational temperatures (K):      0.004764      0.003687      0.003530
   
  The Quasi-Harmonic approximation will be applied to compute
  vibrational constributions to thermodynamic properties.
  Frequencies will be adjusted to a minimum value of  100.00 cm^-1.

  vibrational temperatures:
       mode:      1        2        3        4        5        6
  temp. (K):   143.88   143.88   143.88   143.88   143.88   143.88
   
       mode:      7        8        9       10       11       12
  temp. (K):   143.88   143.88   143.88   143.88   143.88   143.88
   
       mode:     13       14       15       16       17       18
  temp. (K):   143.88   143.88   153.73   159.46   178.58   186.41
   
       mode:     19       20       21       22       23       24
  temp. (K):   191.29   204.84   207.02   226.98   237.49   241.98
   
       mode:     25       26       27       28       29       30
  temp. (K):   249.54   265.55   269.03   287.23   305.93   321.52
   
       mode:     31       32       33       34       35       36
  temp. (K):   333.62   344.16   351.61   366.19   369.37   376.93
   
       mode:     37       38       39       40       41       42
  temp. (K):   386.02   391.38   393.45   395.51   414.37   424.70
   
       mode:     43       44       45       46       47       48
  temp. (K):   437.20   449.39   457.45   472.80   485.16   489.62
   
       mode:     49       50       51       52       53       54
  temp. (K):   492.65   509.88   541.43   556.21   563.52   587.20
   
       mode:     55       56       57       58       59       60
  temp. (K):   590.53   614.80   624.59   643.28   648.63   655.37
   
       mode:     61       62       63       64       65       66
  temp. (K):   661.66   678.80   695.92   704.64   734.26   759.48
   
       mode:     67       68       69       70       71       72
  temp. (K):   762.62   799.87   815.11   840.62   885.82   894.66
   
       mode:     73       74       75       76       77       78
  temp. (K):   916.63   924.94   964.12   974.58  1044.01  1074.84
   
       mode:     79       80       81       82       83       84
  temp. (K):  1091.94  1098.54  1140.27  1162.45  1170.16  1172.09
   
       mode:     85       86       87       88       89       90
  temp. (K):  1181.23  1203.60  1208.45  1211.47  1232.04  1238.59
   
       mode:     91       92       93       94       95       96
  temp. (K):  1259.98  1265.05  1266.04  1305.15  1309.99  1313.04
   
       mode:     97       98       99      100      101      102
  temp. (K):  1315.76  1319.09  1325.72  1337.41  1361.51  1363.36
   
       mode:    103      104      105      106      107      108
  temp. (K):  1366.98  1367.37  1368.37  1386.51  1395.26  1408.44
   
       mode:    109      110      111      112      113      114
  temp. (K):  1409.76  1419.25  1472.73  1483.99  1505.19  1528.24
   
       mode:    115      116      117      118      119      120
  temp. (K):  1532.86  1545.65  1554.79  1558.97  1572.65  1586.04
   
       mode:    121      122      123      124      125      126
  temp. (K):  1594.03  1603.79  1604.77  1616.96  1621.18  1628.43
   
       mode:    127      128      129      130      131      132
  temp. (K):  1631.01  1640.65  1641.42  1647.41  1651.62  1673.22
   
       mode:    133      134      135      136      137      138
  temp. (K):  1702.63  1703.10  1718.23  1721.25  1740.43  1745.61
   
       mode:    139      140      141      142      143      144
  temp. (K):  1747.77  1753.36  1756.37  1758.97  1765.35  1773.30
   
       mode:    145      146      147      148      149      150
  temp. (K):  1808.80  1833.89  1855.81  1869.40  1874.32  1875.99
   
       mode:    151      152      153      154      155      156
  temp. (K):  1883.70  1885.14  1891.76  1893.45  1901.98  1919.24
   
       mode:    157      158      159      160      161      162
  temp. (K):  1930.02  1939.03  1940.85  1946.46  1949.82  1953.07
   
       mode:    163      164      165      166      167      168
  temp. (K):  1961.44  1973.23  1979.26  1980.61  1989.85  2004.25
   
       mode:    169      170      171      172      173      174
  temp. (K):  2006.75  2012.14  2015.71  2019.36  2020.97  2022.75
   
       mode:    175      176      177      178      179      180
  temp. (K):  2029.48  2038.44  2041.36  2046.44  2065.16  2069.16
   
       mode:    181      182      183      184      185      186
  temp. (K):  2070.83  2075.02  2097.28  2123.06  2138.74  2157.95
   
       mode:    187      188      189      190      191      192
  temp. (K):  2160.87  2164.99  2170.08  2171.76  2172.88  2174.00
   
       mode:    193      194      195      196      197      198
  temp. (K):  2174.86  2176.20  2178.32  2181.32  2182.49  2183.14
   
       mode:    199      200      201      202      203      204
  temp. (K):  2183.77  2186.46  2187.82  2189.30  2190.44  2198.84
   
       mode:    205      206      207      208      209      210
  temp. (K):  2200.71  2200.93  2203.88  2205.59  2206.82  2208.36
   
       mode:    211      212      213      214      215      216
  temp. (K):  2209.88  2219.82  2223.68  2301.49  2349.74  2363.69
   
       mode:    217      218      219      220      221      222
  temp. (K):  2367.71  4344.93  4346.14  4348.48  4351.88  4352.61
   
       mode:    223      224      225      226      227      228
  temp. (K):  4355.13  4356.16  4358.04  4359.32  4361.17  4364.94
   
       mode:    229      230      231      232      233      234
  temp. (K):  4370.82  4375.55  4376.82  4377.12  4378.48  4381.76
   
       mode:    235      236      237      238      239      240
  temp. (K):  4391.04  4398.72  4415.87  4418.33  4428.47  4429.84
   
       mode:    241      242      243      244      245      246
  temp. (K):  4430.22  4430.61  4433.00  4434.30  4440.51  4442.64
   
       mode:    247      248      249      250      251      252
  temp. (K):  4443.54  4444.77  4451.17  4463.77  4472.60  4473.78
   
       mode:    253      254      255      256      257      258
  temp. (K):  4474.96  4477.57  4483.10  4485.85  4487.33  4491.87
   
       mode:    259      260      261      262      263      264
  temp. (K):  4498.42  4503.31  4503.44  4537.72  4545.37  4549.63
   
       mode:    265      266      267      268      269      270
  temp. (K):  4559.63  4568.48  4580.35  4599.52  4630.63  4652.57
   
   
  Thermodynamic properties calculated assuming an ideal gas

  In the table below, the units for temperature
  are kelvins, the units for U, H, and G are
  kcal/mol and the units for Cv and S are cal/(mol K)

  The zero point energy (ZPE):    515.850 kcal/mol
  is not included in U, H, or G in the table below
  
 
  =============================================================================
  Thermodynamic properties for P = 1.00E+00 atm, calculated at   1 temperatures


  T =   298.15 K, P = 1.00E+00 atm
   
                  U         Cv          S          H          G        ln(Q)
              =========  =========  =========  =========  =========  =========
  trans.          0.889      2.981     45.262      1.481    -12.014   20.27666
  rot.            0.889      2.981     37.592      0.889    -10.319   17.41680
  vib.           23.961    157.013    145.637     23.961    -19.460   32.84543
  elec.           0.000      0.000      0.000      0.000      0.000    0.00000
  ----------------------------------------------------------------------------
  total          25.739    162.975    228.490     26.331    -41.793   70.53889
   
   Total internal energy, Utot(SCFE + ZPE + U):   -1982.973739 hartrees
   Total enthalpy, Htot (Utot + nRT), with n=1:   -1982.972795 hartrees
    Total Gibbs free energy, Gtot (Htot - T*S):   -1983.081358 hartrees
   
  end of program freq
   
 Time(freq)  user:       0.427  user+sys:       0.427  wallclock:       0.675
  
  start of program post
  
  Writing input files for PBF
  end of program post
   
 Time(post)  user:       0.167  user+sys:       0.167  wallclock:       0.105

 Total cpu seconds     user:  110329.355   user+sys:  110329.355
  
 Total elapsed time:    63031 seconds

Job L1_PL344 completed on bp1-compute055.data.bp.acrc.priv at Sun Apr  6 04:12:25 2025
