Job L_Ar_OtBu_Br_Br_trans_PL344 started on bp1-compute072.data.bp.acrc.priv at Tue Jul 15 10:22:17 2025
jobid: bp1-compute072-0-68761dbe

  +--------------------------------------------------------------------+
  |  Jaguar version 12.5, release 138                                  |
  |                                                                    |
  |  Copyright Schrodinger, Inc.                                       |
  |  All Rights Reserved.                                              |
  |                                                                    |
  |  The following have contributed to Jaguar (listed alphabetically): |
  |  Ty Balduf, Mike Beachy, Chandler Bennett, Art Bochevarov,         |
  |  Dale Braden, Yixiang Cao, Alan Chien, Chris Cortis,               |
  |  Rich Friesner, Jim Furness, Bill Goddard, Hod Greeley,            |
  |  Tom Hughes, Leif Jacobson, Jean-Marc Langlois, Daniel Levine,     |
  |  Rob Murphy, Dean Philipp, Tom Pollard, Murco Ringnalda,           |
  |  Daniel Mainz, Pablo Videla, Mark Watson, Haoyu Yu.                |
  |                                                                    |
  |  Use of this program should be acknowledged in publications as:    |
  |                                                                    |
  |  Jaguar, version 12.5, Schrodinger, Inc., New York, NY, 2024.      |
  |                                                                    |
  |  A. D. Bochevarov, E. Harder, T. F. Hughes, J. R. Greenwood,       |
  |  D. A. Braden, D. M. Philipp, D. Rinaldo, M. D. Halls,             |
  |  J. Zhang, R. A. Friesner, "Jaguar: A High-Performance Quantum     |
  |  Chemistry Software Program with Strengths in Life and Materials   |
  |  Sciences", Int. J. Quantum Chem., 2013, 113(18), 2110-2142.       |
  +--------------------------------------------------------------------+
  
  start of program pre
  
  Job name: L_Ar_OtBu_Br_Br_trans_PL344
  Executables used: /software/local/apps/schrodinger2024-3/jaguar-v12.5/bin/Linux-x86_64
  Temporary files : /tmp/ar21627/L_Ar_OtBu_Br_Br_trans_PL344#bp1-compute072-0-68761dbe
  Basis file : using default basis file from /software/local/apps/schrodinger2024-3
  Maestro file (input):  L_Ar_OtBu_Br_Br_trans_PL344.mae
  Maestro file (output): L_Ar_OtBu_Br_Br_trans_PL344.01.mae
  
 Contents of input file: &gen and (if present) &atomic sections only
 ----------------Contents start----------------
&gen
dftname=b3pw91-d3
basis=6-31G*
numd=5
ip11=2
iaccg=3
isolv=2
igeopt=1
molchg=-1
solvent=benzene
ifreq=1
&
&atomic
atom basis
Pd2 lacv3p*
Br118 lacv3p*
&
 -----------------Contents end-----------------
 
  PS calculation requested. Using PS version of 6-31g*
  basis set:               non_standard                    
  net molecular charge:   -1
  multiplicity:            1
  
  Using up to   4 threads per process
  
  This run will use ECP on            2  atoms
  number of basis functions....          876
  
 Input geometry:
                                   angstroms
  atom               x                 y                 z
  P1            0.3005753334      0.0547034798      0.1362518223 
  Pd2           0.6105969678      0.2654619397      2.4196677441 
  O2           -1.1801875612      1.4040027012      2.8436129401 
  C3            5.2630439658     -0.6475106745      2.7094654220 
  C4            4.3887699345     -1.6713019980      3.0416348363 
  C5            3.0210027001     -1.4702734896      2.8548373542 
  C6            2.5221903400     -0.2764815143      2.3251429940 
  C7            3.4396030222      0.7430995252      2.0255586379 
  C8            4.8130374299      0.5661697718      2.2111357148 
  F9            6.5911871130     -0.8303041403      2.8928923584 
  H10           4.7769536549     -2.5954042026      3.4612539814 
  H11           3.0841743876      1.7064686028      1.6653352149 
  H12           5.5278525595      1.3529529585      1.9836246140 
  H13           2.3278831688     -2.2454378781      3.1619661864 
  C14           1.7119004057     -0.3313705728     -1.0566345462 
  C15           2.3995795811     -1.6541942733     -0.7050831216 
  C16           3.4182663909     -2.0532014761     -1.7757304806 
  C17           4.4490159071     -0.9408349594     -1.9816630423 
  C18           3.7552895857      0.3727278638     -2.3523082401 
  C19           2.7345054985      0.7898175045     -1.2840674224 
  C20          -0.3809680450      1.6601295680     -0.5307024044 
  C21          -1.9019551743      1.7934848881     -0.3805667343 
  C22          -2.3692333135      3.0509842266     -1.1236714600 
  C23          -1.6509757298      4.3153560236     -0.6368961912 
  C24          -0.1266565192      4.1468795232     -0.6084379728 
  C25           0.2915733826      2.8704550783      0.1323022126 
  C26          -0.8453623022     -1.3162890463     -0.4703739651 
  C27          -1.2190504158     -2.4415799457      0.2960737219 
  C28          -1.9558617477     -3.4892587665     -0.3117249589 
  C29          -2.3368121941     -3.4263882045     -1.6431955443 
  C30          -1.9958340261     -2.3120266764     -2.3977403617 
  C31          -1.2622809110     -1.2769187211     -1.8330988144 
  C32          -1.0303641786     -2.5897022269      1.7773866399 
  C33          -2.0069328116     -1.9990777640      2.6169336080 
  C34          -1.9139949633     -2.1926507464      3.9957817372 
  C35          -0.9079330571     -2.9742525760      4.5695622749 
  C36           0.0046818362     -3.5976902645      3.7128508205 
  C37          -0.0629322312     -3.4641553471      2.3208244193 
  C38           0.7277988180     -4.4405206888      1.4495665737 
  C39           0.2277367894     -5.8709619086      1.7295445021 
  C40           2.2512477521     -4.4199071189      1.6100827380 
  C41          -4.3690580835     -2.4083926501      1.9305625536 
  C42          -3.2585540886     -1.3477445017      2.0352068096 
  C43          -3.7658667518     -0.1348892583      2.8121169156 
  C44          -1.1918082167     -2.0932688971      6.9636048397 
  C45          -0.9146049524     -3.2978315446      6.0564975679 
  C46          -1.9358705491     -4.4153311774      6.3239043861 
  O47          -0.9030108653     -0.1895012809     -2.5700951016 
  C48          -1.4775630108      0.0115996474     -3.8455255698 
  O49          -2.2830312145     -4.5298843151      0.5049259072 
  C50          -3.0280962146     -5.6014329973     -0.0373203107 
  H51           1.1880847635     -0.4677444926     -2.0100422183 
  H52           1.6487822607     -2.4436053426     -0.5841191636 
  H53           2.9139666632     -1.5458204730      0.2539149253 
  H54           3.9121974998     -2.9890083775     -1.4821509775 
  H55           2.8986407427     -2.2524634680     -2.7260849971 
  H56           5.1758612899     -1.2227458440     -2.7550476618 
  H57           5.0132477739     -0.7991038610     -1.0475592766 
  H58           4.4939940088      1.1743763275     -2.4858283353 
  H59           3.2429342620      0.2518162664     -3.3197449016 
  H60           2.2333362257      1.7122894275     -1.6005350995 
  H61           3.2675909467      1.0038947193     -0.3540566842 
  H62          -0.1288299493      1.6637462652     -1.5967258842 
  H63          -2.1346484149      1.8454175515      0.6912009111 
  H64          -2.4165312199      0.9154002618     -0.7867092110 
  H65          -2.1745676536      2.9127550435     -2.1994653311 
  H66          -3.4553751908      3.1731919804     -1.0154407183 
  H67          -2.0019148497      4.5500980947      0.3751476341 
  H68          -1.9238898821      5.1732721068     -1.2664437952 
  H69           0.2571374701      4.1021386908     -1.6401564019 
  H70           0.3401877209      5.0239003424     -0.1399249931 
  H71          -0.0303936025      2.8998337485      1.1779462813 
  H72           1.3848085126      2.7792181939      0.1348912224 
  H73          -2.9092036354     -4.2229750340     -2.1058220011 
  H74          -2.3019086615     -2.2678551337     -3.4372207867 
  H75          -2.6715366424     -1.7481822280      4.6346743852 
  H76           0.7497371670     -4.2668428770      4.1430089500 
  H77           0.5020724164     -4.2076645043      0.4024659511 
  H78           0.5685001666     -6.2124563336      2.7153669010 
  H79          -0.8619989018     -5.9202438899      1.7102846201 
  H80           0.6255343938     -6.5677191227      0.9804670190 
  H81           2.5497552283     -4.6111457221      2.6489222736 
  H82           2.6951154403     -5.2123436624      0.9940788365 
  H83           2.6909476764     -3.4714617698      1.3041852350 
  H84          -4.6671487389     -2.7377839867      2.9348391603 
  H85          -5.2536212120     -1.9843660099      1.4382618766 
  H86          -4.0450548325     -3.2909710431      1.3749129500 
  H87          -3.0210207289     -1.0039953413      1.0232378376 
  H88          -4.1342675816     -0.4120733576      3.8092511423 
  H89          -4.6071230510      0.3207489422      2.2736749711 
  H90          -2.9523844753      0.5915316760      2.9088141793 
  H91          -2.1888676129     -1.6744897479      6.7850647962 
  H92          -0.4617566224     -1.2897120154      6.8210048537 
  H93          -1.1480927843     -2.3946734326      8.0167666433 
  H94           0.0776049456     -3.6969728501      6.3152305191 
  H95          -2.9489036289     -4.0717114661      6.0803806941 
  H96          -1.7236566932     -5.2956136658      5.7065368645 
  H97          -1.9211824904     -4.7181866347      7.3783909873 
  H98          -1.1324757252      0.9957741154     -4.1698318396 
  H99          -2.5747859976      0.0088051249     -3.7960697876 
  H100         -1.1401100819     -0.7434408625     -4.5688877351 
  H101         -3.1742983742     -6.3068790524      0.7833253167 
  H102         -4.0090821358     -5.2665341993     -0.4025959076 
  H103         -2.4856013847     -6.1009445331     -0.8521963352 
  C104         -1.3065542581      2.4659740101      3.7382345947 
  C105         -1.9769354374      2.0214251687      5.0637462809 
  C106          0.0250826872      3.1777242680      4.0739777804 
  C107         -2.2364578658      3.5170162611      3.1016052265 
  H108         -1.4304364108      1.2073245595      5.5571605517 
  H109         -2.0509782266      2.8497278559      5.7810162306 
  H110         -2.9851859844      1.6430909372      4.8693977960 
  H111         -2.4981770977      4.3228301905      3.8011330408 
  H112         -1.7475520787      3.9657561538      2.2331378230 
  H113         -3.1580223349      3.0331648761      2.7606430561 
  H114          0.6730552671      2.5747301087      4.7173000839 
  H115          0.5811853227      3.3893753766      3.1543427982 
  H116         -0.1494384899      4.1257803978      4.5991365767 
  Br118         0.7521737552     -0.1293904279      4.8030367086 
   
  principal moments of inertia:
        amu*angstrom^2:              9429.50740             10096.81652             10652.40616
                g*cm^2:          1.56580635E-36          1.67661562E-36          1.76887344E-36
   
  rotational constants:
               cm^(-1):      0.00178775      0.00166960      0.00158252
                   GHz:      0.05359548      0.05005330      0.04744271
   
  Molecular weight:     889.30 amu
   
  Stoichiometry: PdC45PH66BrO3F
  Molecular Point Group: C1      
  Point Group used: C1
  
 
Number of optimization coordinates:   391
Number of independent coordinates:    391
Number of non-redundant coordinates:  348
Number of frozen coordinates:           0
Number of harmonic constraints:         0
 
Number of geometric degrees of freedom:   348
Maximum geometric degrees of freedom:     348
 " " " " " excluding dummy atoms:         348
 
 
  bond lengths (angstroms):
 
 P1      -Pd2     :   2.313984      P1      -C14     :   1.887821
 P1      -C20     :   1.867277      P1      -C26     :   1.887005
 Pd2     -O2      :   2.164004      Pd2     -C6      :   1.989177
 Pd2     -Br118   :   2.420000      O2      -C104    :   1.394310
 C3      -C4      :   1.386665      C3      -C8      :   1.387032
 C3      -F9      :   1.353153      C4      -C5      :   1.395024
 C4      -H10     :   1.086615      C5      -C6      :   1.398045
 C5      -H13     :   1.084261      C6      -C7      :   1.403903
 C7      -C8      :   1.397163      C7      -H11     :   1.088196
 C8      -H12     :   1.087083      C14     -C15     :   1.531781
 C14     -C19     :   1.534441      C14     -H51     :   1.096342
 C15     -C16     :   1.530756      C15     -H52     :   1.096129
 C15     -H53     :   1.093625      C16     -C17     :   1.530429
 C16     -H54     :   1.098131      C16     -H55     :   1.101313
 C17     -C18     :   1.531039      C17     -H56     :   1.098136
 C17     -H57     :   1.100452      C18     -C19     :   1.535286
 C18     -H58     :   1.098250      C18     -H59     :   1.101391
 C19     -H60     :   1.096484      C19     -H61     :   1.093128
 C20     -C21     :   1.534186      C20     -C25     :   1.535179
 C20     -H62     :   1.095442      C21     -C22     :   1.533577
 C21     -H63     :   1.097966      C21     -H64     :   1.095798
 C22     -C23     :   1.533454      C22     -H65     :   1.101968
 C22     -H66     :   1.098341      C23     -C24     :   1.533865
 C23     -H67     :   1.096583      C23     -H68     :   1.098559
 C24     -C25     :   1.533907      C24     -H69     :   1.101700
 C24     -H70     :   1.098460      C25     -H71     :   1.094485
 C25     -H72     :   1.097039      C26     -C27     :   1.411866
 C26     -C31     :   1.425619      C27     -C28     :   1.417724
 C27     -C32     :   1.500610      C28     -C29     :   1.386322
 C28     -O49     :   1.362667      C29     -C30     :   1.388310
 C29     -H73     :   1.084530      C30     -C31     :   1.388657
 C30     -H74     :   1.084506      C31     -O47     :   1.361879
 C32     -C33     :   1.416814      C32     -C37     :   1.412769
 C33     -C34     :   1.395468      C33     -C42     :   1.526171
 C34     -C35     :   1.397242      C34     -H75     :   1.086096
 C35     -C36     :   1.398390      C35     -C45     :   1.521750
 C36     -C37     :   1.400050      C36     -H76     :   1.089912
 C37     -C38     :   1.528933      C38     -C39     :   1.540978
 C38     -C40     :   1.532021      C38     -H77     :   1.096172
 C39     -H78     :   1.097535      C39     -H79     :   1.091019
 C39     -H80     :   1.097648      C40     -H81     :   1.097664
 C40     -H82     :   1.097468      C40     -H83     :   1.089246
 C41     -C42     :   1.539202      C41     -H84     :   1.098148
 C41     -H85     :   1.097547      C41     -H86     :   1.092094
 C42     -C43     :   1.527080      C42     -H87     :   1.094836
 C43     -H88     :   1.098557      C43     -H89     :   1.097833
 C43     -H90     :   1.094893      C44     -C45     :   1.533185
 C44     -H91     :   1.096075      C44     -H92     :   1.094995
 C44     -H93     :   1.096315      C45     -C46     :   1.537301
 C45     -H94     :   1.100335      C46     -H95     :   1.097094
 C46     -H96     :   1.095936      C46     -H97     :   1.097214
 O47     -C48     :   1.413250      C48     -H98     :   1.092181
 C48     -H99     :   1.098341      C48     -H100    :   1.098733
 O49     -C50     :   1.413283      C50     -H101    :   1.092011
 C50     -H102    :   1.099053      C50     -H103    :   1.099016
 C104    -C105    :   1.550489      C104    -C106    :   1.546793
 C104    -C107    :   1.541009      C105    -H108    :   1.097670
 C105    -H109    :   1.098200      C105    -H110    :   1.094293
 C106    -H114    :   1.094228      C106    -H115    :   1.095342
 C106    -H116    :   1.097752      C107    -H111    :   1.098714
 C107    -H112    :   1.092992      C107    -H113    :   1.095285
 
  bond angles:
 
 C14     -P1      -Pd2     : 122.820149  C20     -P1      -Pd2     : 108.847757
 C20     -P1      -C14     : 102.885267  C26     -P1      -Pd2     : 117.694965
 C26     -P1      -C14     :  95.870402  C26     -P1      -C20     : 106.749190
 O2      -Pd2     -P1      :  97.490910  C6      -Pd2     -P1      :  93.270250
 C6      -Pd2     -O2      : 161.424937  Br118   -Pd2     -P1      : 164.759367
 Br118   -Pd2     -O2      :  86.635643  Br118   -Pd2     -C6      :  86.911771
 C104    -O2      -Pd2     : 126.971761  C8      -C3      -C4      : 121.839836
 F9      -C3      -C4      : 119.119037  F9      -C3      -C8      : 119.035255
 C5      -C4      -C3      : 118.665704  H10     -C4      -C3      : 119.680339
 H10     -C4      -C5      : 121.636107  C6      -C5      -C4      : 121.574406
 H13     -C5      -C4      : 119.065687  H13     -C5      -C6      : 119.321868
 C5      -C6      -Pd2     : 123.884080  C7      -C6      -Pd2     : 116.120651
 C7      -C6      -C5      : 117.894202  C8      -C7      -C6      : 121.470711
 H11     -C7      -C6      : 120.009307  H11     -C7      -C8      : 118.499556
 C7      -C8      -C3      : 118.519455  H12     -C8      -C3      : 119.680107
 H12     -C8      -C7      : 121.798574  C15     -C14     -P1      : 111.543951
 C19     -C14     -P1      : 116.260323  C19     -C14     -C15     : 111.458860
 H51     -C14     -P1      : 102.577095  H51     -C14     -C15     : 107.858016
 H51     -C14     -C19     : 106.284496  C16     -C15     -C14     : 111.305577
 H52     -C15     -C14     : 109.862321  H52     -C15     -C16     : 110.199209
 H53     -C15     -C14     : 109.076740  H53     -C15     -C16     : 109.034976
 H53     -C15     -H52     : 107.263374  C17     -C16     -C15     : 110.662343
 H54     -C16     -C15     : 109.540324  H54     -C16     -C17     : 110.636048
 H55     -C16     -C15     : 109.677494  H55     -C16     -C17     : 109.461140
 H55     -C16     -H54     : 106.782296  C18     -C17     -C16     : 110.548197
 H56     -C17     -C16     : 110.729746  H56     -C17     -C18     : 110.466838
 H57     -C17     -C16     : 108.948419  H57     -C17     -C18     : 109.105848
 H57     -C17     -H56     : 106.948066  C19     -C18     -C17     : 111.463024
 H58     -C18     -C17     : 110.543102  H58     -C18     -C19     : 109.481592
 H59     -C18     -C17     : 109.222540  H59     -C18     -C19     : 109.371785
 H59     -C18     -H58     : 106.632939  C18     -C19     -C14     : 110.348323
 H60     -C19     -C14     : 110.664457  H60     -C19     -C18     : 109.367889
 H61     -C19     -C14     : 109.998450  H61     -C19     -C18     : 108.718975
 H61     -C19     -H60     : 107.679475  C21     -C20     -P1      : 113.680289
 C25     -C20     -P1      : 111.326406  C25     -C20     -C21     : 108.876252
 H62     -C20     -P1      : 105.451112  H62     -C20     -C21     : 108.852634
 H62     -C20     -C25     : 108.471862  C22     -C21     -C20     : 109.022089
 H63     -C21     -C20     : 108.043831  H63     -C21     -C22     : 111.693140
 H64     -C21     -C20     : 111.077298  H64     -C21     -C22     : 109.535274
 H64     -C21     -H63     : 107.468022  C23     -C22     -C21     : 112.306328
 H65     -C22     -C21     : 108.443212  H65     -C22     -C23     : 109.304089
 H66     -C22     -C21     : 110.169659  H66     -C22     -C23     : 109.887107
 H66     -C22     -H65     : 106.549718  C24     -C23     -C22     : 112.383391
 H67     -C23     -C22     : 108.636867  H67     -C23     -C24     : 108.930898
 H68     -C23     -C22     : 110.220596  H68     -C23     -C24     : 110.077616
 H68     -C23     -H67     : 106.391998  C25     -C24     -C23     : 111.797024
 H69     -C24     -C23     : 109.468165  H69     -C24     -C25     : 108.872160
 H70     -C24     -C23     : 110.033631  H70     -C24     -C25     : 110.031646
 H70     -C24     -H69     : 106.486791  C24     -C25     -C20     : 109.150421
 H71     -C25     -C20     : 107.751653  H71     -C25     -C24     : 111.027522
 H72     -C25     -C20     : 111.840187  H72     -C25     -C24     : 110.002248
 H72     -C25     -H71     : 107.045433  C27     -C26     -P1      : 124.422366
 C31     -C26     -P1      : 117.698921  C31     -C26     -C27     : 117.614410
 C28     -C27     -C26     : 119.591558  C32     -C27     -C26     : 125.540128
 C32     -C27     -C28     : 114.557494  C29     -C28     -C27     : 121.402817
 O49     -C28     -C27     : 115.606718  O49     -C28     -C29     : 122.973279
 C30     -C29     -C28     : 119.400108  H73     -C29     -C28     : 121.426881
 H73     -C29     -C30     : 119.166584  C31     -C30     -C29     : 120.468481
 H74     -C30     -C29     : 118.967321  H74     -C30     -C31     : 120.560841
 C30     -C31     -C26     : 121.504819  O47     -C31     -C26     : 117.528416
 O47     -C31     -C30     : 120.963528  C33     -C32     -C27     : 117.201595
 C37     -C32     -C27     : 121.797257  C37     -C32     -C33     : 120.138244
 C34     -C33     -C32     : 118.801141  C42     -C33     -C32     : 121.152630
 C42     -C33     -C34     : 119.369988  C35     -C34     -C33     : 122.094104
 H75     -C34     -C33     : 118.556227  H75     -C34     -C35     : 119.312542
 C36     -C35     -C34     : 117.886046  C45     -C35     -C34     : 121.134340
 C45     -C35     -C36     : 120.443456  C37     -C36     -C35     : 122.350037
 H76     -C36     -C35     : 118.557924  H76     -C36     -C37     : 118.945770
 C36     -C37     -C32     : 118.330925  C38     -C37     -C32     : 122.020290
 C38     -C37     -C36     : 118.730900  C39     -C38     -C37     : 108.748920
 C40     -C38     -C37     : 116.486520  C40     -C38     -C39     : 108.430115
 H77     -C38     -C37     : 107.588846  H77     -C38     -C39     : 107.693208
 H77     -C38     -C40     : 107.577512  H78     -C39     -C38     : 110.564955
 H79     -C39     -C38     : 111.275379  H79     -C39     -H78     : 108.174784
 H80     -C39     -C38     : 110.343242  H80     -C39     -H78     : 107.634760
 H80     -C39     -H79     : 108.739292  H81     -C40     -C38     : 111.545589
 H82     -C40     -C38     : 109.491051  H82     -C40     -H81     : 107.183172
 H83     -C40     -C38     : 112.563472  H83     -C40     -H81     : 107.921166
 H83     -C40     -H82     : 107.928315  H84     -C41     -C42     : 109.899047
 H85     -C41     -C42     : 110.227306  H85     -C41     -H84     : 107.897467
 H86     -C41     -C42     : 112.174635  H86     -C41     -H84     : 107.663579
 H86     -C41     -H85     : 108.851296  C41     -C42     -C33     : 108.875759
 C43     -C42     -C33     : 114.675980  C43     -C42     -C41     : 110.011047
 H87     -C42     -C33     : 107.961937  H87     -C42     -C41     : 108.062010
 H87     -C42     -C43     : 107.035035  H88     -C43     -C42     : 111.888057
 H89     -C43     -C42     : 109.553010  H89     -C43     -H88     : 107.033056
 H90     -C43     -C42     : 108.968549  H90     -C43     -H88     : 109.657544
 H90     -C43     -H89     : 109.711942  H91     -C44     -C45     : 111.609201
 H92     -C44     -C45     : 112.269245  H92     -C44     -H91     : 107.751761
 H93     -C44     -C45     : 110.191156  H93     -C44     -H91     : 107.325073
 H93     -C44     -H92     : 107.473834  C44     -C45     -C35     : 114.320849
 C46     -C45     -C35     : 109.113993  C46     -C45     -C44     : 110.370450
 H94     -C45     -C35     : 107.634257  H94     -C45     -C44     : 107.993538
 H94     -C45     -C46     : 107.124801  H95     -C46     -C45     : 110.312029
 H96     -C46     -C45     : 110.931828  H96     -C46     -H95     : 107.778360
 H97     -C46     -C45     : 111.034228  H97     -C46     -H95     : 108.188322
 H97     -C46     -H96     : 108.486894  C48     -O47     -C31     : 119.653802
 H98     -C48     -O47     : 105.530392  H99     -C48     -O47     : 111.415857
 H99     -C48     -H98     : 109.347891  H100    -C48     -O47     : 111.808768
 H100    -C48     -H98     : 109.068860  H100    -C48     -H99     : 109.555073
 C50     -O49     -C28     : 118.401505  H101    -C50     -O49     : 105.786191
 H102    -C50     -O49     : 111.532944  H102    -C50     -H101    : 109.093580
 H103    -C50     -O49     : 111.645312  H103    -C50     -H101    : 109.249285
 H103    -C50     -H102    : 109.430267  C105    -C104    -O2      : 111.674497
 C106    -C104    -O2      : 114.312545  C106    -C104    -C105    : 108.577948
 C107    -C104    -O2      : 108.004931  C107    -C104    -C105    : 106.727895
 C107    -C104    -C106    : 107.177414  H108    -C105    -C104    : 112.437079
 H109    -C105    -C104    : 111.793477  H109    -C105    -H108    : 107.419564
 H110    -C105    -C104    : 110.222502  H110    -C105    -H108    : 106.388037
 H110    -C105    -H109    : 108.339201  H114    -C106    -C104    : 112.572042
 H115    -C106    -C104    : 110.105645  H115    -C106    -H114    : 107.424566
 H116    -C106    -C104    : 111.368825  H116    -C106    -H114    : 106.786476
 H116    -C106    -H115    : 108.390358  H111    -C107    -C104    : 112.391854
 H112    -C107    -C104    : 109.776913  H112    -C107    -H111    : 108.139428
 H113    -C107    -C104    : 109.574591  H113    -C107    -H111    : 108.769805
 H113    -C107    -H112    : 108.082109
 
  torsional angles:
 
 P1      -Pd2     -O2      -C104    :-140.585952
 P1      -Pd2     -C6      -C5      :-112.121009
 P1      -Pd2     -C6      -C7      :  84.751934
 P1      -C14     -C15     -C16     : 172.598675
 P1      -C14     -C15     -H52     :  50.258641
 P1      -C14     -C15     -H53     : -67.051125
 P1      -C14     -C19     -C18     :-175.670532
 P1      -C14     -C19     -H60     : -54.478807
 P1      -C14     -C19     -H61     :  64.380746
 P1      -C20     -C21     -C22     :-172.494072
 P1      -C20     -C21     -H63     :  65.937261
 P1      -C20     -C21     -H64     : -51.701136
 P1      -C20     -C25     -C24     : 170.595387
 P1      -C20     -C25     -H71     : -68.740943
 P1      -C20     -C25     -H72     :  48.639000
 P1      -C26     -C27     -C28     :-172.516926
 P1      -C26     -C27     -C32     :  14.249181
 P1      -C26     -C31     -C30     : 173.589879
 P1      -C26     -C31     -O47     :  -5.761577
 Pd2     -P1      -C14     -C15     :  58.622086
 Pd2     -P1      -C14     -C19     : -70.676075
 Pd2     -P1      -C14     -H51     : 173.828498
 Pd2     -P1      -C20     -C21     : -83.280643
 Pd2     -P1      -C20     -C25     :  40.117874
 Pd2     -P1      -C20     -H62     : 157.556391
 Pd2     -P1      -C26     -C27     : -19.056157
 Pd2     -P1      -C26     -C31     : 167.004731
 Pd2     -O2      -C104    -C105    :-101.837784
 Pd2     -O2      -C104    -C106    :  21.924620
 Pd2     -O2      -C104    -C107    : 141.107246
 Pd2     -C6      -C5      -C4      :-165.009318
 Pd2     -C6      -C5      -H13     :  12.725973
 Pd2     -C6      -C7      -C8      : 165.990448
 Pd2     -C6      -C7      -H11     : -12.340680
 O2      -Pd2     -P1      -C14     : 159.294413
 O2      -Pd2     -P1      -C20     :  39.257919
 O2      -Pd2     -P1      -C26     : -82.281804
 O2      -Pd2     -C6      -C5      : 122.431410
 O2      -Pd2     -C6      -C7      : -40.695647
 O2      -C104    -C105    -H108    :  57.417647
 O2      -C104    -C105    -H109    : 178.342951
 O2      -C104    -C105    -H110    : -61.098933
 O2      -C104    -C106    -H114    : -72.417765
 O2      -C104    -C106    -H115    :  47.417137
 O2      -C104    -C106    -H116    : 167.681554
 O2      -C104    -C107    -H111    : 172.088217
 O2      -C104    -C107    -H112    : -67.516183
 O2      -C104    -C107    -H113    :  51.033604
 C3      -C4      -C5      -C6      :   1.003582
 C3      -C4      -C5      -H13     :-176.737363
 C3      -C8      -C7      -C6      :  -0.320610
 C3      -C8      -C7      -H11     : 178.034977
 C4      -C3      -C8      -C7      :  -0.910391
 C4      -C3      -C8      -H12     : 178.601953
 C4      -C5      -C6      -C7      :  -2.158845
 C5      -C4      -C3      -C8      :   0.579633
 C5      -C4      -C3      -F9      : 179.689246
 C5      -C6      -Pd2     -Br118   :  52.615807
 C5      -C6      -C7      -C8      :   1.811435
 C5      -C6      -C7      -H11     :-176.519692
 C6      -Pd2     -P1      -C14     :  -5.532446
 C6      -Pd2     -P1      -C20     :-125.568939
 C6      -Pd2     -P1      -C26     : 112.891337
 C6      -Pd2     -O2      -C104    : -15.702877
 C6      -C5      -C4      -H10     : 179.461230
 C6      -C7      -C8      -H12     :-179.822111
 C7      -C6      -Pd2     -Br118   :-110.511250
 C7      -C6      -C5      -H13     : 175.576447
 C7      -C8      -C3      -F9      : 179.979273
 C8      -C3      -C4      -H10     :-177.908920
 F9      -C3      -C4      -H10     :   1.200692
 F9      -C3      -C8      -H12     :  -0.508383
 H10     -C4      -C5      -H13     :   1.720286
 H11     -C7      -C8      -H12     :  -1.466524
 C14     -P1      -Pd2     -Br118   : -95.786939
 C14     -P1      -C20     -C21     : 144.991309
 C14     -P1      -C20     -C25     : -91.610174
 C14     -P1      -C20     -H62     :  25.828343
 C14     -P1      -C26     -C27     : 112.959162
 C14     -P1      -C26     -C31     : -60.979949
 C14     -C15     -C16     -C17     :  56.241806
 C14     -C15     -C16     -H54     : 178.485448
 C14     -C15     -C16     -H55     : -64.623061
 C14     -C19     -C18     -C17     : -55.991987
 C14     -C19     -C18     -H58     :-178.610474
 C14     -C19     -C18     -H59     :  64.887815
 C15     -C14     -P1      -C20     :-178.565754
 C15     -C14     -P1      -C26     : -69.860118
 C15     -C14     -C19     -C18     :  54.990381
 C15     -C14     -C19     -H60     : 176.182105
 C15     -C14     -C19     -H61     : -64.958342
 C15     -C16     -C17     -C18     : -56.803592
 C15     -C16     -C17     -H56     :-179.564612
 C15     -C16     -C17     -H57     :  63.082200
 C16     -C15     -C14     -C19     : -55.619135
 C16     -C15     -C14     -H51     :  60.688298
 C16     -C17     -C18     -C19     :  57.174262
 C16     -C17     -C18     -H58     : 179.181473
 C16     -C17     -C18     -H59     : -63.792774
 C17     -C16     -C15     -H52     : 178.387123
 C17     -C16     -C15     -H53     : -64.133020
 C17     -C18     -C19     -H60     :-177.952211
 C17     -C18     -C19     -H61     :  64.725036
 C18     -C17     -C16     -H54     :-178.403985
 C18     -C17     -C16     -H55     :  64.189635
 C18     -C19     -C14     -H51     : -62.274270
 C19     -C14     -P1      -C20     :  52.136086
 C19     -C14     -P1      -C26     : 160.841721
 C19     -C14     -C15     -H52     :-177.959168
 C19     -C14     -C15     -H53     :  64.731065
 C19     -C18     -C17     -H56     :-179.911612
 C19     -C18     -C17     -H57     : -62.616880
 C20     -P1      -Pd2     -Br118   : 144.176568
 C20     -P1      -C14     -H51     : -63.359341
 C20     -P1      -C26     -C27     :-141.670911
 C20     -P1      -C26     -C31     :  44.389977
 C20     -C21     -C22     -C23     : -56.296414
 C20     -C21     -C22     -H65     :  64.599902
 C20     -C21     -C22     -H66     :-179.143761
 C20     -C25     -C24     -C23     :  56.931939
 C20     -C25     -C24     -H69     : -64.135138
 C20     -C25     -C24     -H70     : 179.514409
 C21     -C20     -P1      -C26     :  44.713883
 C21     -C20     -C25     -C24     : -63.307860
 C21     -C20     -C25     -H71     :  57.355810
 C21     -C20     -C25     -H72     : 174.735753
 C21     -C22     -C23     -C24     :  50.304223
 C21     -C22     -C23     -H67     : -70.304386
 C21     -C22     -C23     -H68     : 173.489080
 C22     -C21     -C20     -C25     :  62.780951
 C22     -C21     -C20     -H62     : -55.290775
 C22     -C23     -C24     -C25     : -50.464390
 C22     -C23     -C24     -H69     :  70.256391
 C22     -C23     -C24     -H70     :-173.045728
 C23     -C22     -C21     -H63     :  63.028192
 C23     -C22     -C21     -H64     :-178.029236
 C23     -C24     -C25     -H71     : -61.706022
 C23     -C24     -C25     -H72     : 179.990952
 C24     -C23     -C22     -H65     : -70.095399
 C24     -C23     -C22     -H66     : 173.310619
 C24     -C25     -C20     -H62     :  55.003797
 C25     -C20     -P1      -C26     : 168.112400
 C25     -C20     -C21     -H63     : -58.787716
 C25     -C20     -C21     -H64     :-176.426112
 C25     -C24     -C23     -H67     :  69.974607
 C25     -C24     -C23     -H68     :-173.729341
 C26     -P1      -Pd2     -Br118   :  22.636844
 C26     -P1      -C14     -H51     :  45.346294
 C26     -P1      -C20     -H62     : -74.449083
 C26     -C27     -C28     -C29     :  -0.933521
 C26     -C27     -C28     -O49     :-179.468457
 C26     -C27     -C32     -C33     :  82.548615
 C26     -C27     -C32     -C37     :-108.079214
 C26     -C31     -C30     -C29     :  -0.443877
 C26     -C31     -C30     -H74     :-179.770473
 C26     -C31     -O47     -C48     :-169.131595
 C27     -C26     -C31     -C30     :  -0.769212
 C27     -C26     -C31     -O47     : 179.879332
 C27     -C28     -C29     -C30     :  -0.294659
 C27     -C28     -C29     -H73     :-179.364532
 C27     -C28     -O49     -C50     : 179.445355
 C27     -C32     -C33     -C34     : 175.733473
 C27     -C32     -C33     -C42     :   5.217921
 C27     -C32     -C37     -C36     :-176.753856
 C27     -C32     -C37     -C38     :  -7.863492
 C28     -C27     -C26     -C31     :   1.426886
 C28     -C27     -C32     -C33     : -90.983966
 C28     -C27     -C32     -C37     :  78.388205
 C28     -C29     -C30     -C31     :   0.979897
 C28     -C29     -C30     -H74     :-179.682880
 C28     -O49     -C50     -H101    :-179.851107
 C28     -O49     -C50     -H102    : -61.362179
 C28     -O49     -C50     -H103    :  61.412292
 C29     -C28     -C27     -C32     : 173.016118
 C29     -C28     -O49     -C50     :   0.935922
 C29     -C30     -C31     -O47     : 178.885428
 C30     -C29     -C28     -O49     : 178.130479
 C30     -C31     -O47     -C48     :  11.513244
 C31     -C26     -C27     -C32     :-171.807007
 C31     -C30     -C29     -H73     :-179.929031
 C31     -O47     -C48     -H98     : 173.009894
 C31     -O47     -C48     -H99     :  54.431848
 C31     -O47     -C48     -H100    : -68.538001
 C32     -C27     -C28     -O49     :  -5.518819
 C32     -C33     -C34     -C35     :  -1.499198
 C32     -C33     -C34     -H75     :-179.266471
 C32     -C33     -C42     -C41     :  90.168988
 C32     -C33     -C42     -C43     :-146.114920
 C32     -C33     -C42     -H87     : -26.914979
 C32     -C37     -C36     -C35     :   4.684455
 C32     -C37     -C36     -H76     :-179.777681
 C32     -C37     -C38     -C39     :-108.278768
 C32     -C37     -C38     -C40     : 128.891026
 C32     -C37     -C38     -H77     :   8.099368
 C33     -C32     -C37     -C36     :  -7.687508
 C33     -C32     -C37     -C38     : 161.202856
 C33     -C34     -C35     -C36     :  -1.516409
 C33     -C34     -C35     -C45     :-173.153237
 C33     -C42     -C41     -H84     :  65.844147
 C33     -C42     -C41     -H85     :-175.360264
 C33     -C42     -C41     -H86     : -53.891603
 C33     -C42     -C43     -H88     : -66.643925
 C33     -C42     -C43     -H89     : 174.821727
 C33     -C42     -C43     -H90     :  54.784743
 C34     -C33     -C32     -C37     :   6.176138
 C34     -C33     -C42     -C41     : -80.293549
 C34     -C33     -C42     -C43     :  43.422543
 C34     -C33     -C42     -H87     : 162.622485
 C34     -C35     -C36     -C37     :  -0.119909
 C34     -C35     -C36     -H76     :-175.674348
 C34     -C35     -C45     -C44     : -46.221634
 C34     -C35     -C45     -C46     :  77.896719
 C34     -C35     -C45     -H94     :-166.180316
 C35     -C34     -C33     -C42     : 169.188520
 C35     -C36     -C37     -C38     :-164.578104
 C35     -C45     -C44     -H91     :  62.736671
 C35     -C45     -C44     -H92     : -58.366690
 C35     -C45     -C44     -H93     :-178.123064
 C35     -C45     -C46     -H95     : -63.663841
 C35     -C45     -C46     -H96     :  55.687803
 C35     -C45     -C46     -H97     : 176.406188
 C36     -C35     -C34     -H75     : 176.234503
 C36     -C35     -C45     -C44     : 142.354095
 C36     -C35     -C45     -C46     : -93.527551
 C36     -C35     -C45     -H94     :  22.395413
 C36     -C37     -C38     -C39     :  60.568812
 C36     -C37     -C38     -C40     : -62.261394
 C36     -C37     -C38     -H77     : 176.946949
 C37     -C32     -C33     -C42     :-164.339413
 C37     -C36     -C35     -C45     : 171.577217
 C37     -C38     -C39     -H78     : -72.576064
 C37     -C38     -C39     -H79     :  47.662531
 C37     -C38     -C39     -H80     : 168.464099
 C37     -C38     -C40     -H81     :  57.182090
 C37     -C38     -C40     -H82     : 175.650649
 C37     -C38     -C40     -H83     : -64.304753
 C38     -C37     -C36     -H76     :  10.959759
 C39     -C38     -C40     -H81     : -65.813778
 C39     -C38     -C40     -H82     :  52.654781
 C39     -C38     -C40     -H83     : 172.699379
 C40     -C38     -C39     -H78     :  54.981219
 C40     -C38     -C39     -H79     : 175.219814
 C40     -C38     -C39     -H80     : -63.978618
 C41     -C42     -C43     -H88     :  56.464646
 C41     -C42     -C43     -H89     : -62.069702
 C41     -C42     -C43     -H90     : 177.893314
 C42     -C33     -C34     -H75     :  -8.578753
 C43     -C42     -C41     -H84     : -60.602941
 C43     -C42     -C41     -H85     :  58.192648
 C43     -C42     -C41     -H86     : 179.661310
 C44     -C45     -C46     -H95     :  62.751388
 C44     -C45     -C46     -H96     :-177.896968
 C44     -C45     -C46     -H97     : -57.178583
 C45     -C35     -C34     -H75     :   4.597675
 C45     -C35     -C36     -H76     :  -3.977221
 C46     -C45     -C44     -H91     : -60.707610
 C46     -C45     -C44     -H92     : 178.189029
 C46     -C45     -C44     -H93     :  58.432656
 O47     -C31     -C30     -H74     :  -0.441168
 O49     -C28     -C29     -H73     :  -0.939394
 H51     -C14     -C15     -H52     : -61.651735
 H51     -C14     -C15     -H53     :-178.961502
 H51     -C14     -C19     -H60     :  58.917455
 H51     -C14     -C19     -H61     : 177.777008
 H52     -C15     -C16     -H54     : -59.369236
 H52     -C15     -C16     -H55     :  57.522255
 H53     -C15     -C16     -H54     :  58.110622
 H53     -C15     -C16     -H55     : 175.002113
 H54     -C16     -C17     -H56     :  58.834995
 H54     -C16     -C17     -H57     : -58.518193
 H55     -C16     -C17     -H56     : -58.571385
 H55     -C16     -C17     -H57     :-175.924573
 H56     -C17     -C18     -H58     : -57.904401
 H56     -C17     -C18     -H59     :  59.121352
 H57     -C17     -C18     -H58     :  59.390331
 H57     -C17     -C18     -H59     : 176.416084
 H58     -C18     -C19     -H60     :  59.429302
 H58     -C18     -C19     -H61     : -57.893451
 H59     -C18     -C19     -H60     : -57.072408
 H59     -C18     -C19     -H61     :-174.395161
 H62     -C20     -C21     -H63     :-176.859443
 H62     -C20     -C21     -H64     :  65.502161
 H62     -C20     -C25     -H71     : 175.667467
 H62     -C20     -C25     -H72     : -66.952590
 H63     -C21     -C22     -H65     :-176.075492
 H63     -C21     -C22     -H66     : -59.819155
 H64     -C21     -C22     -H65     : -57.132920
 H64     -C21     -C22     -H66     :  59.123417
 H65     -C22     -C23     -H67     : 169.295992
 H65     -C22     -C23     -H68     :  53.089457
 H66     -C22     -C23     -H67     :  52.702010
 H66     -C22     -C23     -H68     : -63.504524
 H67     -C23     -C24     -H69     :-169.304613
 H67     -C23     -C24     -H70     : -52.606732
 H68     -C23     -C24     -H69     : -53.008560
 H68     -C23     -C24     -H70     :  63.689321
 H69     -C24     -C25     -H71     : 177.226901
 H69     -C24     -C25     -H72     :  58.923875
 H70     -C24     -C25     -H71     :  60.876448
 H70     -C24     -C25     -H72     : -57.426578
 H73     -C29     -C30     -H74     :  -0.591808
 H77     -C38     -C39     -H78     : 171.112819
 H77     -C38     -C39     -H79     : -68.648586
 H77     -C38     -C39     -H80     :  52.152982
 H77     -C38     -C40     -H81     : 177.979774
 H77     -C38     -C40     -H82     : -63.551667
 H77     -C38     -C40     -H83     :  56.492931
 H84     -C41     -C42     -H87     :-177.135604
 H85     -C41     -C42     -H87     : -58.340015
 H86     -C41     -C42     -H87     :  63.128646
 H87     -C42     -C43     -H88     : 173.638750
 H87     -C42     -C43     -H89     :  55.104402
 H87     -C42     -C43     -H90     : -64.932582
 H91     -C44     -C45     -H94     :-177.505759
 H92     -C44     -C45     -H94     :  61.390879
 H93     -C44     -C45     -H94     : -58.365494
 H94     -C45     -C46     -H95     :-179.912497
 H94     -C45     -C46     -H96     : -60.560852
 H94     -C45     -C46     -H97     :  60.157532
 C104    -O2      -Pd2     -Br118   :  54.155115
 C105    -C104    -C106    -H114    :  52.990781
 C105    -C104    -C106    -H115    : 172.825683
 C105    -C104    -C106    -H116    : -66.909900
 C105    -C104    -C107    -H111    :  51.876772
 C105    -C104    -C107    -H112    : 172.272372
 C105    -C104    -C107    -H113    : -69.177841
 C106    -C104    -C105    -H108    : -69.522040
 C106    -C104    -C105    -H109    :  51.403264
 C106    -C104    -C105    -H110    : 171.961380
 C106    -C104    -C107    -H111    : -64.297858
 C106    -C104    -C107    -H112    :  56.097742
 C106    -C104    -C107    -H113    : 174.647530
 C107    -C104    -C105    -H108    : 175.241813
 C107    -C104    -C105    -H109    : -63.832883
 C107    -C104    -C105    -H110    :  56.725233
 C107    -C104    -C106    -H114    : 167.934273
 C107    -C104    -C106    -H115    : -72.230825
 C107    -C104    -C106    -H116    :  48.033592
 
  nuclear repulsion energy.......          9027.770619066 hartrees
  
  Detected an organometallic with only one TM atom. 
  
  Oxidation state on metal       2 is     2
  Formal multiplet on metal      2 is     1
  Formal charge on ligand        3 is    -1
  Formal multiplet on ligand     3 is     1
  Formal charge on ligand        4 is    -1
  Formal multiplet on ligand     4 is     1
  Formal charge on ligand        5 is    -1
  Formal multiplet on ligand     5 is     1
  
 
  Will use High-Quality Initial guess for organometallics
       including d-d repulsion (iguess=30)
 
 Non-default options chosen:
   SCF calculation type: DFT(b3pw91-d3)              
   DFT=Becke_3_Parameter/HF+Slater+Becke88+PW91+PW-GGAIIC (B3PW91-D3)
   Geometry will be optimized in redundant internal coordinates
   Solvation energy will be computed using PBF
     -solute cavity energy will not be included
     -surface area terms will not be included
   Vibrational frequencies and related properties will be computed
      from analytic second derivatives
   IR intensities will be computed
   Thermochemical properties will be computed
   Maximum number of geometry steps: 100
   Scaling standard convergence criteria by a factor of   5.00
   Solvent: benzene                                                         
   Internal dielectric constant:    1.000
   Continuum dielectric constant:   2.283
   Solvent probe molecule radius:   2.600
  
 Non-default print settings:
     11=  2
  
 Temporary integer options set:
     21= -1  73=  2
  
  atom       vdw   vdw2    cov     mass  grid  daf  charge   basis
  P1        2.147  2.074  1.060   30.974    Y    Y      Y    ps_6-31g*
  Pd2       1.450  1.450  1.280  105.903    Y    Y      Y    lacv3p*
  O2        1.702  1.600  0.730   15.995    Y    Y      Y    ps_6-31g*
  C3        1.949  1.900  0.770   12.000    Y    Y      Y    ps_6-31g*
  C4        1.949  1.900  0.770   12.000    Y    Y      Y    ps_6-31g*
  C5        1.949  1.900  0.770   12.000    Y    Y      Y    ps_6-31g*
  C6        1.949  1.900  0.770   12.000    Y    Y      Y    ps_6-31g*
  C7        1.949  1.900  0.770   12.000    Y    Y      Y    ps_6-31g*
  C8        1.949  1.900  0.770   12.000    Y    Y      Y    ps_6-31g*
  F9        1.736  1.682  0.720   18.998    Y    Y      Y    ps_6-31g*
  H10       1.597  1.150  0.320    1.008    Y    Y      Y    ps_6-31g*
  H11       1.597  1.150  0.320    1.008    Y    Y      Y    ps_6-31g*
  H12       1.597  1.150  0.320    1.008    Y    Y      Y    ps_6-31g*
  H13       1.597  1.150  0.320    1.008    Y    Y      Y    ps_6-31g*
  C14       1.949  1.900  0.770   12.000    Y    Y      Y    ps_6-31g*
  C15       1.949  1.900  0.770   12.000    Y    Y      Y    ps_6-31g*
  C16       1.949  1.900  0.770   12.000    Y    Y      Y    ps_6-31g*
  C17       1.949  1.900  0.770   12.000    Y    Y      Y    ps_6-31g*
  C18       1.949  1.900  0.770   12.000    Y    Y      Y    ps_6-31g*
  C19       1.949  1.900  0.770   12.000    Y    Y      Y    ps_6-31g*
  C20       1.949  1.900  0.770   12.000    Y    Y      Y    ps_6-31g*
  C21       1.949  1.900  0.770   12.000    Y    Y      Y    ps_6-31g*
  C22       1.949  1.900  0.770   12.000    Y    Y      Y    ps_6-31g*
  C23       1.949  1.900  0.770   12.000    Y    Y      Y    ps_6-31g*
  C24       1.949  1.900  0.770   12.000    Y    Y      Y    ps_6-31g*
  C25       1.949  1.900  0.770   12.000    Y    Y      Y    ps_6-31g*
  C26       1.949  1.900  0.770   12.000    Y    Y      Y    ps_6-31g*
  C27       1.949  1.900  0.770   12.000    Y    Y      Y    ps_6-31g*
  C28       1.949  1.900  0.770   12.000    Y    Y      Y    ps_6-31g*
  C29       1.949  1.900  0.770   12.000    Y    Y      Y    ps_6-31g*
  C30       1.949  1.900  0.770   12.000    Y    Y      Y    ps_6-31g*
  C31       1.949  1.900  0.770   12.000    Y    Y      Y    ps_6-31g*
  C32       1.949  1.900  0.770   12.000    Y    Y      Y    ps_6-31g*
  C33       1.949  1.900  0.770   12.000    Y    Y      Y    ps_6-31g*
  C34       1.949  1.900  0.770   12.000    Y    Y      Y    ps_6-31g*
  C35       1.949  1.900  0.770   12.000    Y    Y      Y    ps_6-31g*
  C36       1.949  1.900  0.770   12.000    Y    Y      Y    ps_6-31g*
  C37       1.949  1.900  0.770   12.000    Y    Y      Y    ps_6-31g*
  C38       1.949  1.900  0.770   12.000    Y    Y      Y    ps_6-31g*
  C39       1.949  1.900  0.770   12.000    Y    Y      Y    ps_6-31g*
  C40       1.949  1.900  0.770   12.000    Y    Y      Y    ps_6-31g*
  C41       1.949  1.900  0.770   12.000    Y    Y      Y    ps_6-31g*
  C42       1.949  1.900  0.770   12.000    Y    Y      Y    ps_6-31g*
  C43       1.949  1.900  0.770   12.000    Y    Y      Y    ps_6-31g*
  C44       1.949  1.900  0.770   12.000    Y    Y      Y    ps_6-31g*
  C45       1.949  1.900  0.770   12.000    Y    Y      Y    ps_6-31g*
  C46       1.949  1.900  0.770   12.000    Y    Y      Y    ps_6-31g*
  O47       1.702  1.600  0.730   15.995    Y    Y      Y    ps_6-31g*
  C48       1.949  1.900  0.770   12.000    Y    Y      Y    ps_6-31g*
  O49       1.702  1.600  0.730   15.995    Y    Y      Y    ps_6-31g*
  C50       1.949  1.900  0.770   12.000    Y    Y      Y    ps_6-31g*
  H51       1.597  1.150  0.320    1.008    Y    Y      Y    ps_6-31g*
  H52       1.597  1.150  0.320    1.008    Y    Y      Y    ps_6-31g*
  H53       1.597  1.150  0.320    1.008    Y    Y      Y    ps_6-31g*
  H54       1.597  1.150  0.320    1.008    Y    Y      Y    ps_6-31g*
  H55       1.597  1.150  0.320    1.008    Y    Y      Y    ps_6-31g*
  H56       1.597  1.150  0.320    1.008    Y    Y      Y    ps_6-31g*
  H57       1.597  1.150  0.320    1.008    Y    Y      Y    ps_6-31g*
  H58       1.597  1.150  0.320    1.008    Y    Y      Y    ps_6-31g*
  H59       1.597  1.150  0.320    1.008    Y    Y      Y    ps_6-31g*
  H60       1.597  1.150  0.320    1.008    Y    Y      Y    ps_6-31g*
  H61       1.597  1.150  0.320    1.008    Y    Y      Y    ps_6-31g*
  H62       1.597  1.150  0.320    1.008    Y    Y      Y    ps_6-31g*
  H63       1.597  1.150  0.320    1.008    Y    Y      Y    ps_6-31g*
  H64       1.597  1.150  0.320    1.008    Y    Y      Y    ps_6-31g*
  H65       1.597  1.150  0.320    1.008    Y    Y      Y    ps_6-31g*
  H66       1.597  1.150  0.320    1.008    Y    Y      Y    ps_6-31g*
  H67       1.597  1.150  0.320    1.008    Y    Y      Y    ps_6-31g*
  H68       1.597  1.150  0.320    1.008    Y    Y      Y    ps_6-31g*
  H69       1.597  1.150  0.320    1.008    Y    Y      Y    ps_6-31g*
  H70       1.597  1.150  0.320    1.008    Y    Y      Y    ps_6-31g*
  H71       1.597  1.150  0.320    1.008    Y    Y      Y    ps_6-31g*
  H72       1.597  1.150  0.320    1.008    Y    Y      Y    ps_6-31g*
  H73       1.597  1.150  0.320    1.008    Y    Y      Y    ps_6-31g*
  H74       1.597  1.150  0.320    1.008    Y    Y      Y    ps_6-31g*
  H75       1.597  1.150  0.320    1.008    Y    Y      Y    ps_6-31g*
  H76       1.597  1.150  0.320    1.008    Y    Y      Y    ps_6-31g*
  H77       1.597  1.150  0.320    1.008    Y    Y      Y    ps_6-31g*
  H78       1.597  1.150  0.320    1.008    Y    Y      Y    ps_6-31g*
  H79       1.597  1.150  0.320    1.008    Y    Y      Y    ps_6-31g*
  H80       1.597  1.150  0.320    1.008    Y    Y      Y    ps_6-31g*
  H81       1.597  1.150  0.320    1.008    Y    Y      Y    ps_6-31g*
  H82       1.597  1.150  0.320    1.008    Y    Y      Y    ps_6-31g*
  H83       1.597  1.150  0.320    1.008    Y    Y      Y    ps_6-31g*
  H84       1.597  1.150  0.320    1.008    Y    Y      Y    ps_6-31g*
  H85       1.597  1.150  0.320    1.008    Y    Y      Y    ps_6-31g*
  H86       1.597  1.150  0.320    1.008    Y    Y      Y    ps_6-31g*
  H87       1.597  1.150  0.320    1.008    Y    Y      Y    ps_6-31g*
  H88       1.597  1.150  0.320    1.008    Y    Y      Y    ps_6-31g*
  H89       1.597  1.150  0.320    1.008    Y    Y      Y    ps_6-31g*
  H90       1.597  1.150  0.320    1.008    Y    Y      Y    ps_6-31g*
  H91       1.597  1.150  0.320    1.008    Y    Y      Y    ps_6-31g*
  H92       1.597  1.150  0.320    1.008    Y    Y      Y    ps_6-31g*
  H93       1.597  1.150  0.320    1.008    Y    Y      Y    ps_6-31g*
  H94       1.597  1.150  0.320    1.008    Y    Y      Y    ps_6-31g*
  H95       1.597  1.150  0.320    1.008    Y    Y      Y    ps_6-31g*
  H96       1.597  1.150  0.320    1.008    Y    Y      Y    ps_6-31g*
  H97       1.597  1.150  0.320    1.008    Y    Y      Y    ps_6-31g*
  H98       1.597  1.150  0.320    1.008    Y    Y      Y    ps_6-31g*
  H99       1.597  1.150  0.320    1.008    Y    Y      Y    ps_6-31g*
  H100      1.597  1.150  0.320    1.008    Y    Y      Y    ps_6-31g*
  H101      1.597  1.150  0.320    1.008    Y    Y      Y    ps_6-31g*
  H102      1.597  1.150  0.320    1.008    Y    Y      Y    ps_6-31g*
  H103      1.597  1.150  0.320    1.008    Y    Y      Y    ps_6-31g*
  C104      1.949  1.900  0.770   12.000    Y    Y      Y    ps_6-31g*
  C105      1.949  1.900  0.770   12.000    Y    Y      Y    ps_6-31g*
  C106      1.949  1.900  0.770   12.000    Y    Y      Y    ps_6-31g*
  C107      1.949  1.900  0.770   12.000    Y    Y      Y    ps_6-31g*
  H108      1.597  1.150  0.320    1.008    Y    Y      Y    ps_6-31g*
  H109      1.597  1.150  0.320    1.008    Y    Y      Y    ps_6-31g*
  H110      1.597  1.150  0.320    1.008    Y    Y      Y    ps_6-31g*
  H111      1.597  1.150  0.320    1.008    Y    Y      Y    ps_6-31g*
  H112      1.597  1.150  0.320    1.008    Y    Y      Y    ps_6-31g*
  H113      1.597  1.150  0.320    1.008    Y    Y      Y    ps_6-31g*
  H114      1.597  1.150  0.320    1.008    Y    Y      Y    ps_6-31g*
  H115      1.597  1.150  0.320    1.008    Y    Y      Y    ps_6-31g*
  H116      1.597  1.150  0.320    1.008    Y    Y      Y    ps_6-31g*
  Br118     2.095  2.095  1.140   78.918    Y    Y      Y    lav3p*
 
  atom      formal  2spin      esp    mulk    frag
  P1           0       0        Y    0.000       0
  Pd2          2       0        Y    0.000       0
  O2          -1       0        Y    0.000       0
  C3          -1       0        Y    0.000       0
  Br118       -1       0        Y    0.000       0
  
  end of program pre
   
 Time(pre)  user:       3.136  user+sys:       3.136  wallclock:       1.158
  
  start of program onee
  
  smallest eigenvalue of S:    3.240E-04
  number of canonical orbitals.....          874
  end of program onee
   
 Time(onee)  user:      17.637  user+sys:      17.637  wallclock:       4.465
  
  start of program hfig
  
  initial wavefunction generated automatically from atomic wavefunctions
  Only one state below 0.010000
  Skip d-d repulsion considerations 
 
  Irreducible     Total no   No of occupied orbitals 
  representation  orbitals   Shell_1  Shell_2    ...
  No Symm          874        205
  ------------------------
  Orbital occupation/shell    1.000
 
  end of program hfig
   
 Time(hfig)  user:       4.169  user+sys:       4.169  wallclock:       1.490
  
  start of program probe
  
  end of program probe
   
 Time(probe)  user:       2.522  user+sys:       2.522  wallclock:       0.805
  
  start of program grid
  
   grid     grid set  grid #  grid sym
  ------    --------  ------  --------
  coarse        0        0        1
  medium        2        1        1
  fine          0        0        1
  ultrafine     4        2        1
  charge       -1        3        1
  gradient      4        2        1
  density       0        0        1
  DFT-fine    -11        4        1
  DFT-med.    -10        5        1
  DFT-grad    -12        6        1
  DFT-der2     -8        7        1
  DFT-cphf     -9        8        1
  LMP2-enrg     4        2        1
  LMP2-grad     2        1        1
  DFT-cphf2   -15        9        1
  PBF-dens      0        0        1
  plotting      0        0        1
  Rel-grad    -17        0        1
  
  number of gridpoints: 
     atom           P1         Pd2          O2          C3          C4          C5          C6
  grid # 1         610         340         115          80          94          94         100
  grid # 2         433         306         462         332         321         323         387
  grid # 3          10         208          13          37          24          13           8
  grid # 4        8714        8714        8714        8714        8714        8714        8714
  grid # 5        1192        1192        1192        1192        1192        1192        1192
  grid # 6        9132        9132        5922        5922        5922        5922        5922
  grid # 7       23034       32968       23382       13950       13950       13950       13950
  grid # 8         722        1150         774         748         748         748         748
  grid # 9         366        2198         416         394         394         394         394
   
  number of gridpoints: 
     atom           C7          C8          F9         H10         H11         H12         H13
  grid # 1          95          94         584         113         107         115         107
  grid # 2         323         320         566         462         435         463         427
  grid # 3          15          25         354         349         144         381          65
  grid # 4        8714        8714        8714        8714        8714        8714        8714
  grid # 5        1192        1192        1192        1192        1192        1192        1192
  grid # 6        5922        5922        5922        5922        5922        5922        5922
  grid # 7       13950       13950       23190       15206       15206       15206       15206
  grid # 8         748         748         770         786         786         786         786
  grid # 9         394         394         420         420         420         420         420
   
  number of gridpoints: 
     atom          C14         C15         C16         C17         C18         C19         C20
  grid # 1          80          90          92          92          92          92          79
  grid # 2         330         282         279         278         280         276         325
  grid # 3           6           6           6           6           6           6           6
  grid # 4        8714        8714        8714        8714        8714        8714        8714
  grid # 5        1192        1192        1192        1192        1192        1192        1192
  grid # 6        5922        5922        5922        5922        5922        5922        5922
  grid # 7       13950       13950       13950       13950       13950       13950       13950
  grid # 8         748         748         748         748         748         748         748
  grid # 9         394         394         394         394         394         394         394
   
  number of gridpoints: 
     atom          C21         C22         C23         C24         C25         C26         C27
  grid # 1          90          92          92          92          90          91          97
  grid # 2         277         280         281         281         277         384         349
  grid # 3           6           6           6           6           6           7           6
  grid # 4        8714        8714        8714        8714        8714        8714        8714
  grid # 5        1192        1192        1192        1192        1192        1192        1192
  grid # 6        5922        5922        5922        5922        5922        5922        5922
  grid # 7       13950       13950       13950       13950       13950       13950       13950
  grid # 8         748         748         748         748         748         748         748
  grid # 9         394         394         394         394         394         394         394
   
  number of gridpoints: 
     atom          C28         C29         C30         C31         C32         C33         C34
  grid # 1          92          95          95          92          99          97          95
  grid # 2         343         323         325         345         356         358         327
  grid # 3          10          32          33          16           8           9          13
  grid # 4        8714        8714        8714        8714        8714        8714        8714
  grid # 5        1192        1192        1192        1192        1192        1192        1192
  grid # 6        5922        5922        5922        5922        5922        5922        5922
  grid # 7       13950       13950       13950       13950       13950       13950       13950
  grid # 8         748         748         748         748         748         748         748
  grid # 9         394         394         394         394         394         394         394
   
  number of gridpoints: 
     atom          C35         C36         C37         C38         C39         C40         C41
  grid # 1         100          95          99          90          81          80          81
  grid # 2         359         327         359         304         240         234         237
  grid # 3          10          11           9           6           6           6           6
  grid # 4        8714        8714        8714        8714        8714        8714        8714
  grid # 5        1192        1192        1192        1192        1192        1192        1192
  grid # 6        5922        5922        5922        5922        5922        5922        5922
  grid # 7       13950       13950       13950       13950       13950       13950       13950
  grid # 8         748         748         748         748         748         748         748
  grid # 9         394         394         394         394         394         394         394
   
  number of gridpoints: 
     atom          C42         C43         C44         C45         C46         O47         C48
  grid # 1          90          81          79          91          80         114          75
  grid # 2         306         236         242         303         244         429         231
  grid # 3           6           6           6           6           6           9           6
  grid # 4        8714        8714        8714        8714        8714        8714        8714
  grid # 5        1192        1192        1192        1192        1192        1192        1192
  grid # 6        5922        5922        5922        5922        5922        5922        5922
  grid # 7       13950       13950       13950       13950       13950       23382       13950
  grid # 8         748         748         748         748         748         774         748
  grid # 9         394         394         394         394         394         416         394
   
  number of gridpoints: 
     atom          O49         C50         H51         H52         H53         H54         H55
  grid # 1         115          76          99         101         101         111         110
  grid # 2         435         225         417         420         415         453         451
  grid # 3          15           6          71          77          39         272         252
  grid # 4        8714        8714        8714        8714        8714        8714        8714
  grid # 5        1192        1192        1192        1192        1192        1192        1192
  grid # 6        5922        5922        5922        5922        5922        5922        5922
  grid # 7       23382       13950       15206       15206       15206       15206       15206
  grid # 8         774         748         786         786         786         786         786
  grid # 9         416         394         420         420         420         420         420
   
  number of gridpoints: 
     atom          H56         H57         H58         H59         H60         H61         H62
  grid # 1         112         109         112         110         104         103          98
  grid # 2         460         443         457         446         430         423         414
  grid # 3         332         201         321         249         124          70          48
  grid # 4        8714        8714        8714        8714        8714        8714        8714
  grid # 5        1192        1192        1192        1192        1192        1192        1192
  grid # 6        5922        5922        5922        5922        5922        5922        5922
  grid # 7       15206       15206       15206       15206       15206       15206       15206
  grid # 8         786         786         786         786         786         786         786
  grid # 9         420         420         420         420         420         420         420
   
  number of gridpoints: 
     atom          H63         H64         H65         H66         H67         H68         H69
  grid # 1         101         102         107         112         105         112         110
  grid # 2         422         428         439         457         429         456         446
  grid # 3          49         110         182         313         144         323         238
  grid # 4        8714        8714        8714        8714        8714        8714        8714
  grid # 5        1192        1192        1192        1192        1192        1192        1192
  grid # 6        5922        5922        5922        5922        5922        5922        5922
  grid # 7       15206       15206       15206       15206       15206       15206       15206
  grid # 8         786         786         786         786         786         786         786
  grid # 9         420         420         420         420         420         420         420
   
  number of gridpoints: 
     atom          H70         H71         H72         H73         H74         H75         H76
  grid # 1         112          99         102         111         111         103         107
  grid # 2         457         411         426         443         442         425         429
  grid # 3         310          21          94         246         240          81         126
  grid # 4        8714        8714        8714        8714        8714        8714        8714
  grid # 5        1192        1192        1192        1192        1192        1192        1192
  grid # 6        5922        5922        5922        5922        5922        5922        5922
  grid # 7       15206       15206       15206       15206       15206       15206       15206
  grid # 8         786         786         786         786         786         786         786
  grid # 9         420         420         420         420         420         420         420
   
  number of gridpoints: 
     atom          H77         H78         H79         H80         H81         H82         H83
  grid # 1         103         108         105         109         106         109         100
  grid # 2         426         443         433         452         431         449         416
  grid # 3          94         233         131         292         170         278          67
  grid # 4        8714        8714        8714        8714        8714        8714        8714
  grid # 5        1192        1192        1192        1192        1192        1192        1192
  grid # 6        5922        5922        5922        5922        5922        5922        5922
  grid # 7       15206       15206       15206       15206       15206       15206       15206
  grid # 8         786         786         786         786         786         786         786
  grid # 9         420         420         420         420         420         420         420
   
  number of gridpoints: 
     atom          H84         H85         H86         H87         H88         H89         H90
  grid # 1         106         109         101         103         105         108          98
  grid # 2         449         453         425         425         430         445         401
  grid # 3         252         310         110          76         173         265          29
  grid # 4        8714        8714        8714        8714        8714        8714        8714
  grid # 5        1192        1192        1192        1192        1192        1192        1192
  grid # 6        5922        5922        5922        5922        5922        5922        5922
  grid # 7       15206       15206       15206       15206       15206       15206       15206
  grid # 8         786         786         786         786         786         786         786
  grid # 9         420         420         420         420         420         420         420
   
  number of gridpoints: 
     atom          H91         H92         H93         H94         H95         H96         H97
  grid # 1         104         103         110         110         108         109         110
  grid # 2         441         440         453         441         449         455         452
  grid # 3         201         170         315         221         254         294         320
  grid # 4        8714        8714        8714        8714        8714        8714        8714
  grid # 5        1192        1192        1192        1192        1192        1192        1192
  grid # 6        5922        5922        5922        5922        5922        5922        5922
  grid # 7       15206       15206       15206       15206       15206       15206       15206
  grid # 8         786         786         786         786         786         786         786
  grid # 9         420         420         420         420         420         420         420
   
  number of gridpoints: 
     atom          H98         H99        H100        H101        H102        H103        C104
  grid # 1         109         109         110         109         109         110          91
  grid # 2         452         447         450         455         444         448         329
  grid # 3         285         285         299         309         258         286           6
  grid # 4        8714        8714        8714        8714        8714        8714        8714
  grid # 5        1192        1192        1192        1192        1192        1192        1192
  grid # 6        5922        5922        5922        5922        5922        5922        5922
  grid # 7       15206       15206       15206       15206       15206       15206       13950
  grid # 8         786         786         786         786         786         786         748
  grid # 9         420         420         420         420         420         420         394
   
  number of gridpoints: 
     atom         C105        C106        C107        H108        H109        H110        H111
  grid # 1          81          80          81         102         107         103         108
  grid # 2         242         241         235         429         449         431         448
  grid # 3           6           6           6         126         282         168         279
  grid # 4        8714        8714        8714        8714        8714        8714        8714
  grid # 5        1192        1192        1192        1192        1192        1192        1192
  grid # 6        5922        5922        5922        5922        5922        5922        5922
  grid # 7       13950       13950       13950       15206       15206       15206       15206
  grid # 8         748         748         748         786         786         786         786
  grid # 9         394         394         394         420         420         420         420
   
  number of gridpoints: 
     atom         H112        H113        H114        H115        H116       Br118       total
  grid # 1         100         105         103         104         107         477       13394
  grid # 2         416         436         445         430         446         455       45503
  grid # 3          74         178         193         146         281         141       14374
  grid # 4        8714        8714        8714        8714        8714        8714     1028252
  grid # 5        1192        1192        1192        1192        1192        1192      140656
  grid # 6        5922        5922        5922        5922        5922        9132      708426
  grid # 7       15206       15206       15206       15206       15206       11582     1792266
  grid # 8         786         786         786         786         786         694       91194
  grid # 9         420         420         420         420         420         358       50040
   
  end of program grid
   
 Time(grid)  user:    1166.823  user+sys:    1166.823  wallclock:     294.710
  
  start of program rwr
  
  end of program rwr
   
 Time(rwr)  user:      72.012  user+sys:      72.012  wallclock:      21.941
  
  start of program scf
  
 number of electrons..........        410
 number of alpha electrons....        205
 number of beta electrons.....        205
 number of orbitals, total....        874
 number of doubly-occ'd orbs..        205
 number of open shell orbs....          0
 number of occupied orbitals..        205
 number of virtual orbitals...        669
 number of hamiltonians.......          1
 number of shells.............          1
 SCF type: DFT=Becke_3_Parameter/HF+Slater+Becke88+PW91+PW-GGAIIC (B3PW91-D3)
 Energy computed using pseudospectral method.
 Convergence Criterion:
    Energy (econv):       1.00E-05
    RMS density (dconv):  5.00E-06
  
       i  u  d  i  g                   
       t  p  i  c  r                                 RMS    maximum
       e  d  i  u  i                       energy  density   DIIS  
       r  t  s  t  d       total energy    change  change    error 
  
etot    1  N  N  5  M   -2553.93337816593           1.9E-03  2.1E-01
etot    2  Y  Y  6  M   -2558.64848460512  4.7E+00  2.8E-03  1.2E-01
etot    3  Y  Y  6  M   -2560.05597629272  1.4E+00  1.2E-03  6.3E-02
etot    4  N  Y  2  U   -2560.47853661124  4.2E-01  9.4E-04  3.7E-02
etot    5  Y  Y  6  M   -2560.60769767648  1.3E-01  6.1E-04  2.2E-02
etot    6  N  Y  2  U   -2560.61988608431  1.2E-02  5.0E-04  9.5E-03
etot    7  Y  Y  6  M   -2560.62722678720  7.3E-03  8.2E-05  4.0E-03
etot    8  N  Y  2  U   -2560.63297949399  5.8E-03  2.9E-05  9.6E-04
etot    9  N  Y  2  U   -2560.63326872673  2.9E-04  1.1E-05  2.8E-04
etot   10  N  Y  2  U   -2560.63328525913  1.7E-05  4.0E-06  1.4E-04
etot   11  N  N  2  U   -2560.63328967625  4.4E-06  0.0E+00  0.0E+00
 
  Computing the dispersion energy correction and its gradients...
  
  
 Energy components, in hartrees:
   (A)  Nuclear repulsion............    9027.77061906635
   (E)  Total one-electron terms.....  -21582.87714244571
   (F)    Electron-nuclear...........  -24040.11083159348
   (H)    Kinetic....................    2457.23368914778
   (I)  Total two-electron terms.....    9994.47323370311
   (J)    Coulomb....................   10338.24471942940
   (K)    Exchange+Correlation.......    -343.77148572629
   (L)  Electronic energy............  -11588.40390874260  (E+I)
   (N0) D3 correction................      -0.24524304111
   (N)  Total energy.................   -2560.87853271736  (A+L+N0)
   (O)  Gas phase energy.............   -2560.87853271736
  
 SCFE: SCF energy: DFT(b3pw91-d3)     -2560.87853271736 hartrees   iterations:  11
  
 
 HOMO energy:    -0.05498
 LUMO energy:     0.05467
 
  Orbital energies (hartrees): 
   -76.97424   -24.57674   -19.09945   -19.09397   -18.91498   -10.16093
   -10.16078   -10.15515   -10.15369   -10.13278   -10.10964   -10.10926
   -10.10361   -10.10199   -10.08267   -10.08177   -10.08113   -10.07758
   -10.07655   -10.07491   -10.07445   -10.07380   -10.07267   -10.07261
   -10.07235   -10.07193   -10.07027   -10.06833   -10.06656   -10.06601
   -10.06454   -10.06362   -10.06314   -10.06110   -10.06015   -10.05808
   -10.05720   -10.05692   -10.05610   -10.05423   -10.05383   -10.05221
   -10.04773   -10.04755   -10.04604   -10.04216   -10.01852   -10.01673
   -10.00356    -9.99922    -6.47367    -4.63215    -4.63095    -4.62833
    -3.20933    -1.94223    -1.94012    -1.90652    -1.10903    -1.00863
    -1.00238    -0.79036    -0.78898    -0.75976    -0.75219    -0.74142
    -0.73896    -0.71713    -0.71219    -0.70105    -0.69238    -0.67257
    -0.66845    -0.65858    -0.65376    -0.64951    -0.64771    -0.63636
    -0.62211    -0.62192    -0.61910    -0.61624    -0.61444    -0.59263
    -0.58442    -0.57120    -0.56871    -0.55271    -0.54332    -0.54059
    -0.54018    -0.52693    -0.52580    -0.51782    -0.51345    -0.51128
    -0.50342    -0.50076    -0.49403    -0.48374    -0.47949    -0.46962
    -0.46144    -0.45495    -0.44495    -0.44183    -0.43587    -0.43347
    -0.42577    -0.41428    -0.40948    -0.39577    -0.39191    -0.38880
    -0.38386    -0.37951    -0.37661    -0.36539    -0.36293    -0.35757
    -0.35577    -0.35480    -0.35271    -0.35090    -0.34989    -0.34859
    -0.34738    -0.34259    -0.34214    -0.34098    -0.34015    -0.33280
    -0.32985    -0.32526    -0.32172    -0.31850    -0.31499    -0.31433
    -0.30990    -0.30828    -0.30686    -0.30426    -0.30074    -0.29760
    -0.29516    -0.29242    -0.29081    -0.28838    -0.28728    -0.28564
    -0.28298    -0.27883    -0.27881    -0.27665    -0.27593    -0.27238
    -0.26599    -0.26509    -0.26047    -0.25987    -0.25904    -0.25824
    -0.25385    -0.25164    -0.24988    -0.24783    -0.24543    -0.24321
    -0.24123    -0.24078    -0.23476    -0.23333    -0.22921    -0.22854
    -0.22581    -0.22178    -0.22122    -0.22023    -0.21706    -0.21574
    -0.21272    -0.21124    -0.20865    -0.20538    -0.20429    -0.19907
    -0.19627    -0.19304    -0.19172    -0.17972    -0.17279    -0.16648
    -0.16201    -0.14357    -0.13671    -0.13332    -0.13260    -0.12631
    -0.12057    -0.10312    -0.09101    -0.08611    -0.07820    -0.05923
    -0.05498     0.05467     0.08476     0.08690     0.10470     0.10727
     0.11099     0.12756     0.13725     0.14700     0.15402
 
  end of program scf
   
 Time(scf)  user:    1006.831  user+sys:    1006.831  wallclock:     255.990
  
  start of program der1a
  
  end of program der1a
   
 Time(der1a)  user:      55.941  user+sys:      55.941  wallclock:      14.362
  
  start of program rwr
  
  end of program rwr
   
 Time(rwr)  user:      92.413  user+sys:      92.413  wallclock:      31.547
  
  start of program der1b
  
   
  forces (hartrees/bohr) : total     
   
 atom  label           x              y              z
 ---- --------   -------------  -------------  -------------
    1 P1          1.072737E-03   1.428526E-03   1.042272E-02
    2 Pd2        -1.013480E-02   5.573825E-03  -1.437016E-02
    3 O2         -3.015014E-03   3.344066E-03  -1.116299E-02
    4 C3         -2.588779E-03   1.420187E-03  -6.395542E-04
    5 C4         -8.078839E-04   3.525474E-04  -1.808670E-03
    6 C5          2.761459E-03  -2.659810E-03   1.294119E-05
    7 C6         -6.261765E-04   1.784220E-03   2.640245E-03
    8 C7          8.224339E-05  -1.902422E-03  -1.489041E-04
    9 C8          6.622663E-04  -1.152936E-03  -7.107807E-04
   10 F9          5.228957E-03  -6.720120E-04   4.949357E-04
   11 H10         4.057447E-04  -4.519676E-04  -1.333970E-04
   12 H11        -4.638286E-04   1.554962E-04   8.250661E-04
   13 H12         3.100746E-04  -2.808250E-05   1.880079E-04
   14 H13        -4.873731E-04   1.787797E-03   9.028291E-04
   15 C14        -2.907351E-03  -7.895136E-05  -2.680837E-03
   16 C15         2.443367E-04   4.981850E-04  -1.369138E-05
   17 C16        -2.982149E-04   5.392849E-05   6.722944E-04
   18 C17        -9.742669E-05   7.055206E-05   3.727829E-04
   19 C18        -2.488687E-04   2.932609E-04   6.491139E-04
   20 C19         7.328723E-05  -6.177684E-04   1.223469E-04
   21 C20        -1.882903E-04  -1.373300E-03  -3.482051E-03
   22 C21         5.577594E-04   4.818928E-04  -1.940796E-05
   23 C22         5.552502E-05  -4.477391E-04   4.821913E-04
   24 C23        -4.997132E-05  -2.174328E-05   4.483424E-04
   25 C24        -1.084311E-04  -7.538804E-04   3.837035E-04
   26 C25        -5.945302E-04  -1.926789E-04   2.898898E-04
   27 C26         4.458044E-04   5.997992E-04  -4.518459E-03
   28 C27         3.160651E-04   1.336659E-03   2.196004E-03
   29 C28         7.627345E-05   1.607679E-03  -3.402257E-03
   30 C29        -3.371433E-04  -1.725655E-03   1.586132E-03
   31 C30         5.796046E-04   2.031719E-03  -1.339142E-03
   32 C31        -1.979353E-03  -4.899415E-03   1.825296E-03
   33 C32         1.002834E-03   8.413279E-04   8.859343E-04
   34 C33         7.991607E-04  -8.925962E-04   3.099468E-03
   35 C34        -5.166891E-05  -4.793955E-03  -2.469005E-03
   36 C35        -8.837234E-04  -3.911384E-04  -3.724825E-03
   37 C36        -4.702024E-03  -5.780685E-04  -2.236119E-04
   38 C37        -6.537217E-04   1.015100E-03   2.158084E-03
   39 C38        -5.802304E-04   5.657962E-04   1.451379E-03
   40 C39         5.898500E-04  -3.096780E-05  -5.420246E-04
   41 C40        -2.441521E-04  -3.133892E-04  -2.976243E-04
   42 C41        -1.797852E-06   6.239483E-04  -3.836263E-04
   43 C42         4.456554E-04  -1.478276E-04   1.030615E-03
   44 C43        -9.581489E-04  -1.013689E-03  -6.176752E-04
   45 C44         1.685838E-03   4.512588E-04   2.500505E-03
   46 C45         1.604464E-03   2.278009E-03  -5.396260E-04
   47 C46         3.709804E-04   4.127057E-04  -8.607865E-04
   48 O47        -8.422094E-04   3.495305E-03  -5.086832E-03
   49 C48         2.139094E-03  -6.173565E-04   5.014128E-03
   50 O49        -2.824377E-03  -4.993454E-03  -7.641996E-04
   51 C50         2.487168E-03   4.103897E-03   1.694687E-03
   52 H51         1.401469E-03  -4.035913E-04  -1.337427E-03
   53 H52        -2.225515E-06  -1.163126E-06   1.139426E-04
   54 H53        -3.430244E-04   7.586924E-05   6.023909E-04
   55 H54         2.931933E-04  -1.720715E-04   2.935188E-05
   56 H55        -1.141002E-04   6.711504E-05  -5.165422E-04
   57 H56         4.664465E-04  -1.688785E-04  -5.788888E-04
   58 H57        -3.709787E-04   7.024816E-05  -2.259849E-06
   59 H58         4.916525E-04   2.260947E-04  -1.365739E-04
[...]
    H76      X     0.01046  -0.00055   0.00080   0.00070   0.00222  -0.00407
    H76      Y    -0.00870   0.00048  -0.00071  -0.00062  -0.00208   0.00959
    H76      Z     0.00587  -0.00032   0.00052   0.00045   0.00041  -0.00520
    H77      X     0.00640  -0.00013  -0.00000  -0.00009  -0.00009  -0.00019
    H77      Y    -0.00536   0.00008   0.00011   0.00008   0.00005   0.00005
    H77      Z     0.02323  -0.00045  -0.00011  -0.00017  -0.00052  -0.00163
    H78      X     0.00035  -0.00004  -0.00026   0.00000  -0.00015  -0.00007
    H78      Y    -0.00164   0.00007   0.00019  -0.00000   0.00018   0.00007
    H78      Z     0.00376  -0.00020  -0.00078  -0.00006  -0.00044   0.00008
    H79      X    -0.01104  -0.00047  -0.00261  -0.00066  -0.00016   0.00221
    H79      Y     0.00006  -0.00000   0.00007   0.00013   0.00002   0.00011
    H79      Z    -0.00055  -0.00001  -0.00002  -0.00005  -0.00001   0.00006
    H80      X    -0.00174   0.00008   0.00017   0.00024   0.00011   0.00024
    H80      Y     0.00213  -0.00014  -0.00027  -0.00043  -0.00016  -0.00095
    H80      Z     0.00229  -0.00012  -0.00015  -0.00035  -0.00024  -0.00065
    H81      X     0.04242  -0.00036   0.00003   0.00002  -0.00016  -0.00146
    H81      Y    -0.01531   0.00034  -0.00001   0.00000   0.00011   0.00005
    H81      Z     0.14320  -0.00147   0.00012   0.00004  -0.00042  -0.00149
    H82      X     0.04551   0.00009   0.00018   0.00019   0.00009  -0.00039
    H82      Y    -0.08273  -0.00033  -0.00027  -0.00034  -0.00023   0.00383
    H82      Z    -0.07461  -0.00019  -0.00022  -0.00025  -0.00021   0.00257
    H83      X    -0.31126   0.00115  -0.00034  -0.00009   0.00006   0.00889
    H83      Y    -0.63166   0.00224  -0.00063  -0.00014   0.00012   0.01835
    H83      Z     0.20620  -0.00054   0.00020   0.00006  -0.00006  -0.00738
    H84      X    -0.00002   0.00001   0.00003   0.00000  -0.00127   0.00002
    H84      Y    -0.00002   0.00000  -0.00003   0.00001  -0.00150  -0.00003
    H84      Z     0.00008  -0.00000  -0.00010  -0.00004   0.00312   0.00004
    H85      X     0.00004  -0.00014  -0.00035  -0.00066  -0.00096  -0.00048
    H85      Y    -0.00003   0.00006   0.00015   0.00033   0.00011   0.00014
    H85      Z     0.00002  -0.00007  -0.00016  -0.00029  -0.00034  -0.00022
    H86      X    -0.00000   0.00004  -0.00005   0.00011  -0.00081   0.00000
    H86      Y     0.00002  -0.00010   0.00021  -0.00001   0.00258   0.00009
    H86      Z    -0.00000  -0.00006   0.00021   0.00003   0.00191   0.00007
    H87      X    -0.00003   0.00003  -0.00031  -0.00001  -0.00189   0.00002
    H87      Y    -0.00005   0.00005  -0.00032  -0.00011   0.00033   0.00016
    H87      Z     0.00012  -0.00013   0.00106   0.00015  -0.00043  -0.00044
    H88      X    -0.00005   0.00012  -0.00003   0.00005  -0.00582  -0.00004
    H88      Y    -0.00004   0.00008  -0.00001   0.00008  -0.00695  -0.00005
    H88      Z     0.00016  -0.00037   0.00011  -0.00019   0.02282   0.00015
    H89      X    -0.00011   0.00015  -0.00004  -0.00034   0.00383  -0.00045
    H89      Y     0.00007  -0.00010   0.00005   0.00021  -0.00141   0.00025
    H89      Z    -0.00008   0.00012  -0.00003  -0.00022   0.00302  -0.00024
    H90      X    -0.00064   0.00180  -0.00000   0.00013  -0.00284  -0.00009
    H90      Y    -0.00055   0.00154  -0.00004   0.00007  -0.00178  -0.00014
    H90      Z    -0.00008   0.00023  -0.00002   0.00002  -0.00143  -0.00003
    H91      X    -0.00002  -0.00011  -0.00000   0.00009  -0.01484   0.00024
    H91      Y     0.00001  -0.00002   0.00001   0.00001  -0.00260   0.00008
    H91      Z    -0.00001  -0.00000  -0.00001   0.00001  -0.00203  -0.00007
    H92      X    -0.00005   0.00001  -0.00003  -0.00003   0.00095  -0.00012
    H92      Y    -0.00024  -0.00001  -0.00016  -0.00023   0.00689  -0.00001
    H92      Z     0.00009  -0.00002   0.00005   0.00007  -0.00316  -0.00002
    H93      X     0.00001   0.00007   0.00005   0.00011  -0.00378   0.00012
    H93      Y     0.00001  -0.00001  -0.00000  -0.00001   0.00130   0.00002
    H93      Z     0.00004   0.00022   0.00016   0.00033  -0.00839   0.00056
    H94      X    -0.00024  -0.00005   0.00002   0.00000   0.00128  -0.00164
    H94      Y    -0.00007  -0.00001  -0.00000   0.00001   0.00005  -0.00045
    H94      Z     0.00006  -0.00003   0.00003   0.00003   0.00138   0.00031
    H95      X    -0.00002  -0.00012  -0.00011  -0.00006  -0.00216   0.00004
    H95      Y     0.00001  -0.00003  -0.00002  -0.00001  -0.00072   0.00004
    H95      Z     0.00001  -0.00001  -0.00001  -0.00002  -0.00023  -0.00006
    H96      X     0.00044  -0.00004   0.00003   0.00002  -0.00128  -0.00025
    H96      Y    -0.00053   0.00007  -0.00003  -0.00003   0.00170   0.00027
    H96      Z    -0.00033   0.00003  -0.00003  -0.00003   0.00089   0.00009
    H97      X    -0.00008   0.00006   0.00002   0.00006   0.00043   0.00014
    H97      Y    -0.00002  -0.00001  -0.00002  -0.00002  -0.00034  -0.00006
    H97      Z    -0.00036   0.00021   0.00010   0.00023   0.00222   0.00072
    H98      X     0.00001   0.00009   0.00820  -0.00633   0.00004   0.00004
    H98      Y     0.00003   0.00028   0.01899  -0.01398   0.00014   0.00012
    H98      Z    -0.00001  -0.00006  -0.00339   0.00206  -0.00006  -0.00003
    H99      X    -0.00004   0.00013   0.01191  -0.01185  -0.00018   0.00007
    H99      Y    -0.00000  -0.00000   0.00015  -0.00053  -0.00002  -0.00001
    H99      Z     0.00001  -0.00001  -0.00111   0.00099   0.00000  -0.00000
    H100     X    -0.00004   0.00004  -0.00462   0.00395   0.00002   0.00001
    H100     Y     0.00008  -0.00012   0.01112  -0.01077  -0.00012  -0.00005
    H100     Z     0.00009  -0.00011   0.00847  -0.00788  -0.00009  -0.00005
    H101     X    -0.00018  -0.00000   0.00267   0.00134  -0.00004  -0.00002
    H101     Y    -0.00053  -0.00002   0.01243   0.00711  -0.00018  -0.00002
    H101     Z     0.00059   0.00003  -0.01598  -0.00980   0.00014   0.00002
    H102     X     0.00021  -0.00006  -0.01205  -0.00957  -0.00038  -0.00001
    H102     Y    -0.00011   0.00002   0.00605   0.00493   0.00015  -0.00000
    H102     Z     0.00008  -0.00003  -0.00538  -0.00469  -0.00021  -0.00000
    H103     X    -0.00004   0.00005   0.00781   0.00623   0.00007   0.00011
    H103     Y     0.00004  -0.00004  -0.00479  -0.00370  -0.00007  -0.00010
    H103     Z     0.00000  -0.00007  -0.00990  -0.00836  -0.00015  -0.00017
    C104     X     0.00000  -0.00003  -0.00000   0.00000   0.00000  -0.00004
    C104     Y     0.00002  -0.00006   0.00000  -0.00001   0.00005  -0.00003
    C104     Z     0.00002  -0.00010   0.00000  -0.00001  -0.00000  -0.00008
    C105     X     0.00001   0.00001   0.00001   0.00000  -0.00024   0.00003
    C105     Y    -0.00001  -0.00004  -0.00001  -0.00001   0.00017  -0.00007
    C105     Z     0.00001  -0.00004   0.00000  -0.00001  -0.00007  -0.00000
    C106     X    -0.00001   0.00006  -0.00000   0.00001  -0.00000   0.00003
    C106     Y     0.00002  -0.00010   0.00000  -0.00002   0.00002  -0.00004
    C106     Z     0.00000   0.00002  -0.00001  -0.00001  -0.00003   0.00001
    C107     X    -0.00001   0.00001   0.00001   0.00000   0.00002  -0.00001
    C107     Y     0.00001  -0.00006   0.00000  -0.00001   0.00003  -0.00003
    C107     Z    -0.00000   0.00000  -0.00001  -0.00001  -0.00002   0.00001
    H108     X    -0.00024  -0.00000  -0.00007  -0.00002   0.00249  -0.00062
    H108     Y     0.00017   0.00000   0.00004   0.00001  -0.00154   0.00037
    H108     Z    -0.00010  -0.00005  -0.00003  -0.00003   0.00129  -0.00024
    H109     X     0.00004  -0.00021  -0.00000  -0.00005   0.00026  -0.00009
    H109     Y    -0.00009   0.00058   0.00002   0.00017  -0.00092   0.00033
    H109     Z    -0.00010   0.00060   0.00001   0.00015  -0.00064   0.00035
    H110     X     0.00004   0.00006   0.00000   0.00001   0.00014   0.00033
    H110     Y     0.00001   0.00005  -0.00000  -0.00001   0.00012   0.00016
    H110     Z     0.00001  -0.00002   0.00000  -0.00001   0.00016   0.00003
    H111     X     0.00008  -0.00041  -0.00000  -0.00006   0.00003  -0.00025
    H111     Y    -0.00018   0.00085   0.00002   0.00014  -0.00008   0.00048
    H111     Z    -0.00012   0.00062   0.00003   0.00012  -0.00008   0.00031
    H112     X    -0.00003   0.00014  -0.00005   0.00002  -0.00014   0.00007
    H112     Y    -0.00003   0.00015  -0.00007   0.00001  -0.00025   0.00007
    H112     Z     0.00007  -0.00037   0.00014  -0.00004   0.00046  -0.00017
    H113     X     0.00003   0.00012  -0.00000  -0.00002  -0.00018   0.00020
    H113     Y     0.00003   0.00003  -0.00000  -0.00003  -0.00009   0.00008
    H113     Z     0.00001   0.00002  -0.00001  -0.00001  -0.00007   0.00004
    H114     X     0.00008  -0.00069   0.00003  -0.00006   0.00015  -0.00033
    H114     Y    -0.00003   0.00037  -0.00002   0.00002  -0.00007   0.00030
    H114     Z     0.00003  -0.00027   0.00002  -0.00003   0.00004  -0.00019
    H115     X    -0.00002   0.00013  -0.00002   0.00001  -0.00009   0.00003
    H115     Y    -0.00003   0.00024  -0.00003   0.00000  -0.00017  -0.00000
    H115     Z     0.00008  -0.00052   0.00007  -0.00003   0.00033  -0.00005
    H116     X     0.00005  -0.00018  -0.00000  -0.00005   0.00000  -0.00003
    H116     Y    -0.00018   0.00069  -0.00000   0.00016  -0.00012   0.00025
    H116     Z    -0.00016   0.00064   0.00000   0.00015  -0.00011   0.00023
    Br118    X    -0.00000   0.00000  -0.00000  -0.00000  -0.00000   0.00001
    Br118    Y    -0.00000   0.00000  -0.00000  -0.00000   0.00000  -0.00001
    Br118    Z    -0.00000   0.00000  -0.00000   0.00000   0.00000   0.00000
  
  Number of imaginary frequencies:   0
   
  Writing vibrational animation data to L_Ar_OtBu_Br_Br_trans_PL344.vib
  Writing IR vibrational spectrum data to L_Ar_OtBu_Br_Br_trans_PL344_vib.spm
  rotational symmetry number:  1

  rotational temperatures (K):      0.002521      0.002360      0.002296
   
  The Quasi-Harmonic approximation will be applied to compute
  vibrational constributions to thermodynamic properties.
  Frequencies will be adjusted to a minimum value of  100.00 cm^-1.

  vibrational temperatures:
       mode:      1        2        3        4        5        6
  temp. (K):   143.88   143.88   143.88   143.88   143.88   143.88
   
       mode:      7        8        9       10       11       12
  temp. (K):   143.88   143.88   143.88   143.88   143.88   143.88
   
       mode:     13       14       15       16       17       18
  temp. (K):   143.88   143.88   143.88   143.88   143.88   143.88
   
       mode:     19       20       21       22       23       24
  temp. (K):   144.58   149.48   156.05   164.90   172.95   179.38
   
       mode:     25       26       27       28       29       30
  temp. (K):   191.99   195.69   200.79   202.53   209.48   214.54
   
       mode:     31       32       33       34       35       36
  temp. (K):   223.02   229.54   234.28   249.37   263.92   272.10
   
       mode:     37       38       39       40       41       42
  temp. (K):   275.99   285.78   287.93   302.17   312.38   319.69
   
       mode:     43       44       45       46       47       48
  temp. (K):   327.86   335.55   338.91   346.77   369.62   373.61
   
       mode:     49       50       51       52       53       54
  temp. (K):   374.26   380.08   382.00   389.70   395.63   415.65
   
       mode:     55       56       57       58       59       60
  temp. (K):   426.65   432.67   435.33   437.83   440.37   441.19
   
       mode:     61       62       63       64       65       66
  temp. (K):   451.46   467.40   481.21   490.82   498.35   499.42
   
       mode:     67       68       69       70       71       72
  temp. (K):   517.82   525.34   534.04   538.36   553.51   569.42
   
       mode:     73       74       75       76       77       78
  temp. (K):   576.05   579.86   586.88   588.36   590.73   617.78
   
       mode:     79       80       81       82       83       84
  temp. (K):   620.36   626.22   646.64   649.40   657.90   667.28
   
       mode:     85       86       87       88       89       90
  temp. (K):   672.64   681.16   684.72   694.38   699.95   737.44
   
       mode:     91       92       93       94       95       96
  temp. (K):   753.78   756.67   766.34   797.72   813.26   815.30
   
       mode:     97       98       99      100      101      102
  temp. (K):   835.48   838.10   878.83   896.66   915.14   917.08
   
       mode:    103      104      105      106      107      108
  temp. (K):   931.32   966.24   972.69  1024.35  1050.48  1057.01
   
       mode:    109      110      111      112      113      114
  temp. (K):  1087.25  1100.01  1119.18  1142.14  1172.89  1173.70
   
       mode:    115      116      117      118      119      120
  temp. (K):  1182.65  1184.83  1190.12  1194.17  1204.50  1206.21
   
       mode:    121      122      123      124      125      126
  temp. (K):  1216.23  1220.52  1236.49  1258.74  1263.70  1288.76
   
       mode:    127      128      129      130      131      132
  temp. (K):  1290.15  1295.95  1305.96  1317.59  1321.28  1321.76
   
       mode:    133      134      135      136      137      138
  temp. (K):  1324.05  1326.58  1329.95  1332.50  1365.20  1366.71
   
       mode:    139      140      141      142      143      144
  temp. (K):  1367.24  1371.00  1374.19  1374.45  1387.78  1389.86
   
       mode:    145      146      147      148      149      150
  temp. (K):  1402.84  1414.51  1422.26  1423.59  1431.99  1435.59
   
       mode:    151      152      153      154      155      156
  temp. (K):  1481.14  1485.29  1489.45  1516.62  1519.05  1520.90
   
       mode:    157      158      159      160      161      162
  temp. (K):  1524.97  1532.50  1553.16  1558.46  1566.73  1568.99
   
       mode:    163      164      165      166      167      168
  temp. (K):  1590.21  1598.41  1599.89  1603.86  1608.89  1610.03
   
       mode:    169      170      171      172      173      174
  temp. (K):  1623.33  1630.54  1639.79  1645.02  1657.83  1660.18
   
       mode:    175      176      177      178      179      180
  temp. (K):  1664.51  1674.69  1688.26  1701.01  1704.33  1718.55
   
       mode:    181      182      183      184      185      186
  temp. (K):  1719.81  1724.40  1748.10  1749.12  1754.78  1760.19
   
       mode:    187      188      189      190      191      192
  temp. (K):  1764.39  1773.95  1783.61  1796.34  1799.37  1803.12
   
       mode:    193      194      195      196      197      198
  temp. (K):  1815.80  1821.28  1827.24  1864.34  1870.47  1875.25
   
       mode:    199      200      201      202      203      204
  temp. (K):  1876.81  1884.35  1892.17  1892.29  1897.78  1900.57
   
       mode:    205      206      207      208      209      210
  temp. (K):  1906.54  1907.95  1922.20  1925.01  1929.73  1931.16
   
       mode:    211      212      213      214      215      216
  temp. (K):  1935.45  1942.47  1949.14  1961.63  1975.75  1976.67
   
       mode:    217      218      219      220      221      222
  temp. (K):  1979.51  1990.87  2001.40  2009.86  2011.11  2013.77
   
       mode:    223      224      225      226      227      228
  temp. (K):  2015.17  2018.58  2018.84  2019.55  2022.14  2024.70
   
       mode:    229      230      231      232      233      234
  temp. (K):  2029.81  2041.32  2045.18  2048.85  2051.02  2055.81
   
       mode:    235      236      237      238      239      240
  temp. (K):  2075.24  2076.38  2081.20  2096.31  2117.37  2125.33
   
       mode:    241      242      243      244      245      246
  temp. (K):  2152.34  2159.70  2164.94  2167.26  2171.28  2172.55
   
       mode:    247      248      249      250      251      252
  temp. (K):  2173.48  2173.70  2174.78  2176.71  2179.55  2181.61
   
       mode:    253      254      255      256      257      258
  temp. (K):  2184.21  2184.90  2185.60  2187.84  2188.94  2189.95
   
       mode:    259      260      261      262      263      264
  temp. (K):  2191.69  2193.19  2195.22  2197.30  2198.32  2199.04
   
       mode:    265      266      267      268      269      270
  temp. (K):  2202.72  2204.87  2206.13  2206.76  2207.24  2214.31
   
       mode:    271      272      273      274      275      276
  temp. (K):  2218.09  2220.09  2227.52  2228.73  2231.46  2258.27
   
       mode:    277      278      279      280      281      282
  temp. (K):  2335.45  2359.51  2367.29  2367.68  2378.04  2408.38
   
       mode:    283      284      285      286      287      288
  temp. (K):  4320.77  4322.13  4323.90  4336.59  4337.74  4339.33
   
       mode:    289      290      291      292      293      294
  temp. (K):  4343.28  4344.31  4350.89  4364.45  4365.91  4366.74
   
       mode:    295      296      297      298      299      300
  temp. (K):  4367.83  4370.50  4373.04  4374.10  4379.63  4383.92
   
       mode:    301      302      303      304      305      306
  temp. (K):  4399.43  4404.93  4413.17  4415.02  4416.80  4418.26
   
       mode:    307      308      309      310      311      312
  temp. (K):  4424.46  4428.68  4432.87  4433.89  4435.06  4437.88
   
       mode:    313      314      315      316      317      318
  temp. (K):  4440.52  4442.21  4444.97  4447.81  4449.23  4457.78
   
       mode:    319      320      321      322      323      324
  temp. (K):  4461.67  4467.49  4469.45  4471.55  4474.80  4476.32
   
       mode:    325      326      327      328      329      330
  temp. (K):  4478.02  4479.84  4488.88  4493.45  4517.87  4528.02
   
       mode:    331      332      333      334      335      336
  temp. (K):  4532.27  4539.83  4543.37  4545.73  4549.57  4551.82
   
       mode:    337      338      339      340      341      342
  temp. (K):  4552.10  4554.56  4563.06  4564.16  4575.97  4597.43
   
       mode:    343      344      345      346      347      348
  temp. (K):  4598.65  4603.85  4628.99  4652.00  4657.44  4685.28
   
   
  Thermodynamic properties calculated assuming an ideal gas

  In the table below, the units for temperature
  are kelvins, the units for U, H, and G are
  kcal/mol and the units for Cv and S are cal/(mol K)

  The zero point energy (ZPE):    650.076 kcal/mol
  is not included in U, H, or G in the table below
  
 
  =============================================================================
  Thermodynamic properties for P = 1.00E+00 atm, calculated at   1 temperatures


  T =   298.15 K, P = 1.00E+00 atm
   
                  U         Cv          S          H          G        ln(Q)
              =========  =========  =========  =========  =========  =========
  trans.          0.889      2.981     46.232      1.481    -12.303   20.76477
  rot.            0.889      2.981     39.095      0.889    -10.767   18.17325
  vib.           32.875    213.268    200.214     32.875    -26.819   45.26536
  elec.           0.000      0.000      0.000      0.000      0.000    0.00000
  ----------------------------------------------------------------------------
  total          34.652    219.230    285.540     35.245    -49.889   84.20338
   
   Total internal energy, Utot(SCFE + ZPE + U):   -2559.842760 hartrees
   Total enthalpy, Htot (Utot + nRT), with n=1:   -2559.841816 hartrees
    Total Gibbs free energy, Gtot (Htot - T*S):   -2559.977485 hartrees
   
  end of program freq
   
 Time(freq)  user:       1.481  user+sys:       1.481  wallclock:       0.656
  
  start of program post
  
  Writing input files for PBF
  end of program post
   
 Time(post)  user:       0.378  user+sys:       0.378  wallclock:       0.090

 Total cpu seconds     user:  281724.375   user+sys:  281724.375
  
 Total elapsed time:    79817 seconds

Job L_Ar_OtBu_Br_Br_trans_PL344 completed on bp1-compute072.data.bp.acrc.priv at Wed Jul 16 08:32:34 2025
