Job L_Ar_OtBu_Br_O_trans_PL344 started on bp1-compute072.data.bp.acrc.priv at Tue Jul 15 10:22:17 2025
jobid: bp1-compute072-1-68761dbe

  +--------------------------------------------------------------------+
  |  Jaguar version 12.5, release 138                                  |
  |                                                                    |
  |  Copyright Schrodinger, Inc.                                       |
  |  All Rights Reserved.                                              |
  |                                                                    |
  |  The following have contributed to Jaguar (listed alphabetically): |
  |  Ty Balduf, Mike Beachy, Chandler Bennett, Art Bochevarov,         |
  |  Dale Braden, Yixiang Cao, Alan Chien, Chris Cortis,               |
  |  Rich Friesner, Jim Furness, Bill Goddard, Hod Greeley,            |
  |  Tom Hughes, Leif Jacobson, Jean-Marc Langlois, Daniel Levine,     |
  |  Rob Murphy, Dean Philipp, Tom Pollard, Murco Ringnalda,           |
  |  Daniel Mainz, Pablo Videla, Mark Watson, Haoyu Yu.                |
  |                                                                    |
  |  Use of this program should be acknowledged in publications as:    |
  |                                                                    |
  |  Jaguar, version 12.5, Schrodinger, Inc., New York, NY, 2024.      |
  |                                                                    |
  |  A. D. Bochevarov, E. Harder, T. F. Hughes, J. R. Greenwood,       |
  |  D. A. Braden, D. M. Philipp, D. Rinaldo, M. D. Halls,             |
  |  J. Zhang, R. A. Friesner, "Jaguar: A High-Performance Quantum     |
  |  Chemistry Software Program with Strengths in Life and Materials   |
  |  Sciences", Int. J. Quantum Chem., 2013, 113(18), 2110-2142.       |
  +--------------------------------------------------------------------+
  
  start of program pre
  
  Job name: L_Ar_OtBu_Br_O_trans_PL344
  Executables used: /software/local/apps/schrodinger2024-3/jaguar-v12.5/bin/Linux-x86_64
  Temporary files : /tmp/ar21627/L_Ar_OtBu_Br_O_trans_PL344#bp1-compute072-1-68761dbe
  Basis file : using default basis file from /software/local/apps/schrodinger2024-3
  Maestro file (input):  L_Ar_OtBu_Br_O_trans_PL344.mae
  Maestro file (output): L_Ar_OtBu_Br_O_trans_PL344.01.mae
  
 Contents of input file: &gen and (if present) &atomic sections only
 ----------------Contents start----------------
&gen
dftname=b3pw91-d3
basis=6-31G*
numd=5
ip11=2
iaccg=3
isolv=2
igeopt=1
molchg=-1
ifreq=1
solvent=benzene
&
&atomic
atom basis
Pd2 lacv3p*
Br118 lacv3p*
&
 -----------------Contents end-----------------
 
  PS calculation requested. Using PS version of 6-31g*
  basis set:               non_standard                    
  net molecular charge:   -1
  multiplicity:            1
  
  Using up to   4 threads per process
  
  This run will use ECP on            2  atoms
  number of basis functions....          876
  
 Input geometry:
                                   angstroms
  atom               x                 y                 z
  P1           -0.0334447008      0.0108146913     -0.0235103590 
  Pd2           0.4299134675      0.2221245281      2.2936530351 
  O2            0.4739880079      0.3658403887      4.3300888408 
  C3            4.9335857786     -1.4126287634      2.3668681213 
  C4            3.8731968509     -2.2660410492      2.6346838427 
  C5            2.5754171857     -1.7555819352      2.5778186605 
  C6            2.3132296864     -0.4257979070      2.2234137525 
  C7            3.4195758652      0.4057515385      1.9940853498 
  C8            4.7309345462     -0.0738437537      2.0665497448 
  F9            6.1992934978     -1.8940259551      2.4168141581 
  H10           4.0692080141     -3.3027309049      2.8985227108 
  H11           3.2777219556      1.4601839205      1.7730522317 
  H12           5.5865256189      0.5749711118      1.8941746566 
  H13           1.7462936795     -2.3986055694      2.8431683768 
  C14           1.4391683729      0.0093167417     -1.2060969154 
  C15           2.3007580043     -1.2509434339     -1.0651035564 
  C16           3.4961591740     -1.2243988001     -2.0221883225 
  C17           4.3344753812      0.0377200052     -1.8165689730 
  C18           3.4726991227      1.2823251996     -2.0339670141 
  C19           2.2573952954      1.3049280767     -1.0973296600 
  C20          -0.9713961143      1.5321499582     -0.6572796186 
  C21          -2.4959842340      1.3748350261     -0.7220055832 
  C22          -3.1441409787      2.6136642934     -1.3514897026 
  C23          -2.7598399378      3.8948961504     -0.6062269969 
  C24          -1.2382549446      4.0410789958     -0.5177777122 
  C25          -0.6180144408      2.8002322825      0.1311578792 
  C26          -1.0391416819     -1.4355764754     -0.7272479050 
  C27          -1.5258354513     -2.5258056072      0.0327551639 
  C28          -2.0652840097     -3.6601867094     -0.6226118824 
  C29          -2.1654322902     -3.7103327190     -2.0049692709 
  C30          -1.7782272489     -2.6066041155     -2.7574601835 
  C31          -1.2501504861     -1.4793504748     -2.1383513330 
  C32          -1.6055028297     -2.5302186380      1.5294719664 
  C33          -2.7171353991     -1.8935491867      2.1287576377 
  C34          -2.7737939135     -1.7981237018      3.5250903232 
  C35          -1.7409218655     -2.2726482256      4.3283279145 
  C36          -0.7425062481     -3.0332079881      3.7159207769 
  C37          -0.6854653735     -3.2488310212      2.3383323078 
  C38           0.1875700299     -4.3863158086      1.7846378893 
  C39           0.9677343797     -5.1475748122      2.8639163376 
  C40           1.1272665563     -4.0750103363      0.6133397444 
  C41          -4.8764397394     -2.6118765489      1.0872653439 
  C42          -3.9131819927     -1.4282443163      1.2972057436 
  C43          -4.7243306687     -0.2641228061      1.8831937801 
  C44          -2.4256863185     -0.8015135573      6.2917687816 
  C45          -1.6900164436     -2.0584457047      5.8294634065 
  C46          -2.1997686368     -3.3027210642      6.5717091607 
  O47          -0.9503853649     -0.3572419435     -2.8530479192 
  C48          -1.1673521276     -0.3385026251     -4.2525366085 
  O49          -2.4789345285     -4.6730693142      0.1934216713 
  C50          -2.9609188011     -5.8648605933     -0.4007714658 
  H51           0.9972345354     -0.0043855669     -2.2057394700 
  H52           1.6842681838     -2.1310668234     -1.2732704343 
  H53           2.6661934710     -1.3469412634     -0.0395058711 
  H54           4.1059116444     -2.1243160975     -1.8674558906 
  H55           3.1383412053     -1.2577195339     -3.0637810815 
  H56           5.1978595659      0.0459061121     -2.4953629541 
  H57           4.7287373570      0.0414469550     -0.7903925157 
  H58           4.0633519608      2.1963536649     -1.8845252354 
  H59           3.1242778506      1.3006489865     -3.0788625231 
  H60           1.6327826724      2.1676734554     -1.3560472163 
  H61           2.5955220200      1.4482295753     -0.0687111164 
  H62          -0.6194710922      1.6543354884     -1.6886953437 
  H63          -2.9060528984      1.2431345276      0.2886097482 
  H64          -2.7735451467      0.4815192268     -1.2887025154 
  H65          -2.8159683002      2.6881942476     -2.3995573680 
  H66          -4.2353671488      2.4914055391     -1.3712974052 
  H67          -3.1714390904      3.8556490158      0.4142038964 
  H68          -3.2074319725      4.7711960266     -1.0930791260 
  H69          -0.8194935043      4.1834454659     -1.5260613972 
  H70          -0.9733716486      4.9331362258      0.0648098991 
  H71          -1.0138371279      2.7132654556      1.1442210124 
  H72           0.4654886849      2.9167896775      0.2409273655 
  H73          -2.5684223206     -4.5806520014     -2.5125226194 
  H74          -1.9032176307     -2.6391668869     -3.8343870449 
  H75          -3.6287257590     -1.3113286997      3.9858839176 
  H76           0.0143267088     -3.4727075925      4.3592029082 
  H77          -0.5601762647     -5.0906008658      1.3958127460 
  H78           1.7445764484     -4.5300094029      3.3314286785 
  H79           0.3145184541     -5.5290247996      3.6567544523 
  H80           1.4711267858     -6.0076723559      2.4070280733 
  H81           1.9388536366     -3.4067586529      0.9056239547 
  H82           1.5751314449     -5.0098014782      0.2520689178 
  H83           0.6022424357     -3.6186586965     -0.2240388831 
  H84          -5.3054964827     -2.9191928819      2.0500390588 
  H85          -5.7011270489     -2.3257902043      0.4214680540 
  H86          -4.3640780642     -3.4765464326      0.6641366008 
  H87          -3.5439313162     -1.1195814204      0.3132424328 
  H88          -5.2531071235     -0.5585089601      2.7981288470 
  H89          -5.4857154315      0.0513372706      1.1601173392 
  H90          -4.1253830427      0.6177548652      2.1274952203 
  H91          -3.5088447555     -0.8758764373      6.1274085205 
  H92          -2.0451403095      0.0822451540      5.7704581872 
  H93          -2.2714360052     -0.6464179968      7.3662943232 
  H94          -0.6285802317     -1.9198288272      6.0756416077 
  H95          -3.2609328192     -3.4754268639      6.3497178355 
  H96          -1.6457983126     -4.2007100328      6.2735100777 
  H97          -2.0937750647     -3.1805880300      7.6572063904 
  H98          -0.8663569299      0.6580072108     -4.5838426265 
  H99          -2.2263468729     -0.4969347855     -4.4985279966 
  H100         -0.5554779022     -1.0897347292     -4.7702982394 
  H101         -3.2022475167     -6.5357626436      0.4267871115 
  H102         -3.8686209067     -5.6834491693     -0.9935000034 
  H103         -2.1988256913     -6.3350518842     -1.0382613173 
  C104          1.4240484464      0.7447633494      5.2819778028 
  C105          0.6236568422      1.0457037833      6.5645222688 
  C106          2.4321085433     -0.3801841358      5.5835712705 
  C107          2.1911354643      2.0193862400      4.8940132598 
  H108          1.2697772426      1.4412590398      7.3608388057 
  H109         -0.1572025075      1.7817502166      6.3411464918 
  H110          0.1406824015      0.1352986507      6.9351568074 
  H111          2.9646658841      2.2621900807      5.6359016857 
  H112          2.6774685274      1.8782853050      3.9259651375 
  H113          1.5068336825      2.8711192513      4.8235683384 
  H114          2.9865956950     -0.1822647423      6.5123991778 
  H115          1.8907937396     -1.3276248635      5.6924501390 
  H116          3.1548760066     -0.4968089878      4.7721536465 
  Br118        -1.7860471967      1.0193426886      2.8507540486 
   
  principal moments of inertia:
        amu*angstrom^2:              9195.47043              9614.53524             11019.32444
                g*cm^2:          1.52694360E-36          1.59653094E-36          1.82980164E-36
   
  rotational constants:
               cm^(-1):      0.00183325      0.00175335      0.00152982
                   GHz:      0.05495956      0.05256406      0.04586298
   
  Molecular weight:     889.30 amu
   
  Stoichiometry: PdC45PH66BrO3F
  Molecular Point Group: C1      
  Point Group used: C1
  
 
Number of optimization coordinates:   391
Number of independent coordinates:    391
Number of non-redundant coordinates:  348
Number of frozen coordinates:           0
Number of harmonic constraints:         0
 
Number of geometric degrees of freedom:   348
Maximum geometric degrees of freedom:     348
 " " " " " excluding dummy atoms:         348
 
 
  bond lengths (angstroms):
 
 P1      -Pd2     :   2.372467      P1      -C14     :   1.888677
 P1      -C20     :   1.896280      P1      -C26     :   1.897029
 Pd2     -O2      :   2.041976      Pd2     -C6      :   1.992892
 Pd2     -Br118   :   2.420000      O2      -C104    :   1.397244
 C3      -C4      :   1.387250      C3      -C8      :   1.386941
 C3      -F9      :   1.355084      C4      -C5      :   1.395720
 C4      -H10     :   1.087546      C5      -C6      :   1.400953
 C5      -H13     :   1.082283      C6      -C7      :   1.402878
 C7      -C8      :   1.398186      C7      -H11     :   1.086649
 C8      -H12     :   1.087525      C14     -C15     :   1.533125
 C14     -C19     :   1.536208      C14     -H51     :   1.093059
 C15     -C16     :   1.531568      C15     -H52     :   1.094537
 C15     -H53     :   1.092982      C16     -C17     :   1.529051
 C16     -H54     :   1.097994      C16     -H55     :   1.101844
 C17     -C18     :   1.529367      C17     -H56     :   1.098299
 C17     -H57     :   1.099315      C18     -C19     :   1.534524
 C18     -H58     :   1.098477      C18     -H59     :   1.101608
 C19     -H60     :   1.096086      C19     -H61     :   1.092209
 C20     -C21     :   1.534049      C20     -C25     :   1.534453
 C20     -H62     :   1.096631      C21     -C22     :   1.533315
 C21     -H63     :   1.098565      C21     -H64     :   1.093709
 C22     -C23     :   1.531228      C22     -H65     :   1.100771
 C22     -H66     :   1.098232      C23     -C24     :   1.531148
 C23     -H67     :   1.101015      C23     -H68     :   1.097846
 C24     -C25     :   1.531508      C24     -H69     :   1.101029
 C24     -H70     :   1.097879      C25     -H71     :   1.091117
 C25     -H72     :   1.095269      C26     -C27     :   1.415300
 C26     -C31     :   1.427464      C27     -C28     :   1.416803
 C27     -C32     :   1.498842      C28     -C29     :   1.386887
 C28     -O49     :   1.364899      C29     -C30     :   1.390822
 C29     -H73     :   1.085112      C30     -C31     :   1.390274
 C30     -H74     :   1.084645      C31     -O47     :   1.363737
 C32     -C33     :   1.414291      C32     -C37     :   1.420256
 C33     -C34     :   1.400736      C33     -C42     :   1.529220
 C34     -C35     :   1.391829      C34     -H75     :   1.086374
 C35     -C36     :   1.396541      C35     -C45     :   1.517195
 C36     -C37     :   1.395527      C36     -H76     :   1.086171
 C37     -C38     :   1.537088      C38     -C39     :   1.533954
 C38     -C40     :   1.533584      C38     -H77     :   1.098329
 C39     -H78     :   1.097013      C39     -H79     :   1.095804
 C39     -H80     :   1.096320      C40     -H81     :   1.091175
 C40     -H82     :   1.097695      C40     -H83     :   1.088628
 C41     -C42     :   1.540430      C41     -H84     :   1.097937
 C41     -H85     :   1.097834      C41     -H86     :   1.090507
 C42     -C43     :   1.535097      C42     -H87     :   1.095355
 C43     -H88     :   1.096984      C43     -H89     :   1.096386
 C43     -H90     :   1.093677      C44     -C45     :   1.528010
 C44     -H91     :   1.098078      C44     -H92     :   1.094353
 C44     -H93     :   1.096564      C45     -C46     :   1.535903
 C45     -H94     :   1.098392      C46     -H95     :   1.097805
 C46     -H96     :   1.096444      C46     -H97     :   1.097477
 O47     -C48     :   1.416331      C48     -H98     :   1.092426
 C48     -H99     :   1.098673      C48     -H100    :   1.098552
 O49     -C50     :   1.416242      C50     -H101    :   1.092338
 C50     -H102    :   1.099163      C50     -H103    :   1.099208
 C104    -C105    :   1.541464      C104    -C106    :   1.540341
 C104    -C107    :   1.537401      C105    -H108    :   1.099116
 C105    -H109    :   1.096085      C105    -H110    :   1.095204
 C106    -H114    :   1.099704      C106    -H115    :   1.096595
 C106    -H116    :   1.092883      C107    -H111    :   1.098955
 C107    -H112    :   1.092496      C107    -H113    :   1.094843
 
  bond angles:
 
 C14     -P1      -Pd2     : 117.344434  C20     -P1      -Pd2     : 110.583600
 C20     -P1      -C14     : 100.196900  C26     -P1      -Pd2     : 122.260584
 C26     -P1      -C14     : 100.397196  C26     -P1      -C20     : 103.031512
 O2      -Pd2     -P1      : 169.906665  C6      -Pd2     -P1      :  96.960627
 C6      -Pd2     -O2      :  92.156765  Br118   -Pd2     -P1      :  94.320917
 Br118   -Pd2     -O2      :  76.526037  Br118   -Pd2     -C6      : 168.682698
 C104    -O2      -Pd2     : 135.493955  C8      -C3      -C4      : 121.596860
 F9      -C3      -C4      : 119.229240  F9      -C3      -C8      : 119.168236
 C5      -C4      -C3      : 118.547454  H10     -C4      -C3      : 119.701667
 H10     -C4      -C5      : 121.742225  C6      -C5      -C4      : 122.105225
 H13     -C5      -C4      : 119.015505  H13     -C5      -C6      : 118.855632
 C5      -C6      -Pd2     : 118.459914  C7      -C6      -Pd2     : 123.939337
 C7      -C6      -C5      : 117.154802  C8      -C7      -C6      : 121.861039
 H11     -C7      -C6      : 120.362796  H11     -C7      -C8      : 117.763366
 C7      -C8      -C3      : 118.643964  H12     -C8      -C3      : 119.686367
 H12     -C8      -C7      : 121.669667  C15     -C14     -P1      : 112.411131
 C19     -C14     -P1      : 111.733598  C19     -C14     -C15     : 112.795252
 H51     -C14     -P1      : 104.915869  H51     -C14     -C15     : 107.518588
 H51     -C14     -C19     : 106.898079  C16     -C15     -C14     : 111.525538
 H52     -C15     -C14     : 109.084877  H52     -C15     -C16     : 109.554484
 H53     -C15     -C14     : 110.266749  H53     -C15     -C16     : 109.083170
 H53     -C15     -H52     : 107.226809  C17     -C16     -C15     : 110.989234
 H54     -C16     -C15     : 109.340018  H54     -C16     -C17     : 110.677239
 H55     -C16     -C15     : 109.678636  H55     -C16     -C17     : 109.276526
 H55     -C16     -H54     : 106.784506  C18     -C17     -C16     : 110.101465
 H56     -C17     -C16     : 110.734208  H56     -C17     -C18     : 110.428752
 H57     -C17     -C16     : 108.962915  H57     -C17     -C18     : 109.391609
 H57     -C17     -H56     : 107.155358  C19     -C18     -C17     : 111.807468
 H58     -C18     -C17     : 110.783042  H58     -C18     -C19     : 109.302240
 H59     -C18     -C17     : 109.061889  H59     -C18     -C19     : 109.160733
 H59     -C18     -H58     : 106.574790  C18     -C19     -C14     : 111.480761
 H60     -C19     -C14     : 110.096667  H60     -C19     -C18     : 108.592448
 H61     -C19     -C14     : 110.012552  H61     -C19     -C18     : 109.365418
 H61     -C19     -H60     : 107.183899  C21     -C20     -P1      : 115.049808
 C25     -C20     -P1      : 112.170509  C25     -C20     -C21     : 109.591063
 H62     -C20     -P1      : 104.181665  H62     -C20     -C21     : 106.898538
 H62     -C20     -C25     : 108.498717  C22     -C21     -C20     : 110.767536
 H63     -C21     -C20     : 110.148445  H63     -C21     -C22     : 108.465906
 H64     -C21     -C20     : 110.967349  H64     -C21     -C22     : 109.871644
 H64     -C21     -H63     : 106.499811  C23     -C22     -C21     : 111.723573
 H65     -C22     -C21     : 108.636378  H65     -C22     -C23     : 109.385955
 H66     -C22     -C21     : 109.723479  H66     -C22     -C23     : 110.566908
 H66     -C22     -H65     : 106.654077  C24     -C23     -C22     : 110.941170
 H67     -C23     -C22     : 109.113247  H67     -C23     -C24     : 108.745553
 H68     -C23     -C22     : 110.470300  H68     -C23     -C24     : 110.766788
 H68     -C23     -H67     : 106.681064  C25     -C24     -C23     : 110.461712
 H69     -C24     -C23     : 109.718864  H69     -C24     -C25     : 109.801504
 H70     -C24     -C23     : 110.364392  H70     -C24     -C25     : 109.618866
 H70     -C24     -H69     : 106.805496  C24     -C25     -C20     : 111.012925
 H71     -C25     -C20     : 109.126412  H71     -C25     -C24     : 108.123915
 H72     -C25     -C20     : 111.547088  H72     -C25     -C24     : 110.908741
 H72     -C25     -H71     : 105.920386  C27     -C26     -P1      : 124.780042
 C31     -C26     -P1      : 117.934606  C31     -C26     -C27     : 117.153839
 C28     -C27     -C26     : 119.953806  C32     -C27     -C26     : 123.833088
 C32     -C27     -C28     : 116.060266  C29     -C28     -C27     : 121.164751
 O49     -C28     -C27     : 115.658238  O49     -C28     -C29     : 123.175259
 C30     -C29     -C28     : 119.371868  H73     -C29     -C28     : 121.468728
 H73     -C29     -C30     : 119.131750  C31     -C30     -C29     : 120.547945
 H74     -C30     -C29     : 118.769300  H74     -C30     -C31     : 120.681046
 C30     -C31     -C26     : 121.414268  O47     -C31     -C26     : 117.409098
 O47     -C31     -C30     : 121.149227  C33     -C32     -C27     : 117.618848
 C37     -C32     -C27     : 122.395962  C37     -C32     -C33     : 119.710447
 C34     -C33     -C32     : 119.003606  C42     -C33     -C32     : 121.420262
 C42     -C33     -C34     : 119.320895  C35     -C34     -C33     : 121.469971
 H75     -C34     -C33     : 119.024409  H75     -C34     -C35     : 119.471137
 C36     -C35     -C34     : 117.590059  C45     -C35     -C34     : 123.213822
 C45     -C35     -C36     : 119.128944  C37     -C36     -C35     : 123.110011
 H76     -C36     -C35     : 117.309833  H76     -C36     -C37     : 119.579714
 C36     -C37     -C32     : 117.228490  C38     -C37     -C32     : 122.494328
 C38     -C37     -C36     : 119.547799  C39     -C38     -C37     : 113.745652
 C40     -C38     -C37     : 118.224886  C40     -C38     -C39     : 109.055171
 H77     -C38     -C37     : 102.437271  H77     -C38     -C39     : 106.087839
 H77     -C38     -C40     : 106.077659  H78     -C39     -C38     : 112.372763
 H79     -C39     -C38     : 112.249414  H79     -C39     -H78     : 108.044169
 H80     -C39     -C38     : 109.247612  H80     -C39     -H78     : 107.103743
 H80     -C39     -H79     : 107.586253  H81     -C40     -C38     : 112.053698
 H82     -C40     -C38     : 109.178046  H82     -C40     -H81     : 107.831811
 H83     -C40     -C38     : 112.152397  H83     -C40     -H81     : 107.940232
 H83     -C40     -H82     : 107.493724  H84     -C41     -C42     : 109.872409
 H85     -C41     -C42     : 110.619203  H85     -C41     -H84     : 108.130938
 H86     -C41     -C42     : 111.612924  H86     -C41     -H84     : 107.572499
 H86     -C41     -H85     : 108.920114  C41     -C42     -C33     : 109.231695
 C43     -C42     -C33     : 115.877501  C43     -C42     -C41     : 107.715744
 H87     -C42     -C33     : 108.092901  H87     -C42     -C41     : 107.751790
 H87     -C42     -C43     : 107.899067  H88     -C43     -C42     : 111.689419
 H89     -C43     -C42     : 109.474706  H89     -C43     -H88     : 107.009574
 H90     -C43     -C42     : 114.039773  H90     -C43     -H88     : 107.101410
 H90     -C43     -H89     : 107.194993  H91     -C44     -C45     : 111.957662
 H92     -C44     -C45     : 110.655655  H92     -C44     -H91     : 109.050285
 H93     -C44     -C45     : 110.187539  H93     -C44     -H91     : 107.157871
 H93     -C44     -H92     : 107.677285  C44     -C45     -C35     : 113.536536
 C46     -C45     -C35     : 110.648635  C46     -C45     -C44     : 111.124828
 H94     -C45     -C35     : 105.782973  H94     -C45     -C44     : 107.075761
 H94     -C45     -C46     : 108.339699  H95     -C46     -C45     : 110.520306
 H96     -C46     -C45     : 111.369193  H96     -C46     -H95     : 107.730416
 H97     -C46     -C45     : 110.841223  H97     -C46     -H95     : 108.111642
 H97     -C46     -H96     : 108.140444  C48     -O47     -C31     : 119.673310
 H98     -C48     -O47     : 105.636314  H99     -C48     -O47     : 111.529797
 H99     -C48     -H98     : 109.221297  H100    -C48     -O47     : 111.798067
 H100    -C48     -H98     : 109.110694  H100    -C48     -H99     : 109.434510
 C50     -O49     -C28     : 118.475569  H101    -C50     -O49     : 105.913220
 H102    -C50     -O49     : 111.617270  H102    -C50     -H101    : 109.114924
 H103    -C50     -O49     : 111.551283  H103    -C50     -H101    : 109.258135
 H103    -C50     -H102    : 109.293090  C105    -C104    -O2      : 105.468929
 C106    -C104    -O2      : 112.353397  C106    -C104    -C105    : 108.631756
 C107    -C104    -O2      : 113.090573  C107    -C104    -C105    : 107.889264
 C107    -C104    -C106    : 109.169904  H108    -C105    -C104    : 111.582048
 H109    -C105    -C104    : 109.356811  H109    -C105    -H108    : 108.951722
 H110    -C105    -C104    : 110.381197  H110    -C105    -H108    : 108.253004
 H110    -C105    -H109    : 108.241094  H114    -C106    -C104    : 111.340576
 H115    -C106    -C104    : 109.109576  H115    -C106    -H114    : 108.695107
 H116    -C106    -C104    : 111.430476  H116    -C106    -H114    : 108.230381
 H116    -C106    -H115    : 107.937403  H111    -C107    -C104    : 111.347204
 H112    -C107    -C104    : 109.793912  H112    -C107    -H111    : 108.263301
 H113    -C107    -C104    : 110.448262  H113    -C107    -H111    : 108.149406
 H113    -C107    -H112    : 108.765563
 
  torsional angles:
 
 P1      -Pd2     -O2      -C104    :-168.070994
 P1      -Pd2     -C6      -C5      : -99.320473
 P1      -Pd2     -C6      -C7      :  88.573442
 P1      -C14     -C15     -C16     :-179.408063
 P1      -C14     -C15     -H52     :  59.448030
 P1      -C14     -C15     -H53     : -58.056404
 P1      -C14     -C19     -C18     : 178.523593
 P1      -C14     -C19     -H60     : -60.890452
 P1      -C14     -C19     -H61     :  57.018733
 P1      -C20     -C21     -C22     :-175.405190
 P1      -C20     -C21     -H63     :  64.596876
 P1      -C20     -C21     -H64     : -53.086214
 P1      -C20     -C25     -C24     : 172.272379
 P1      -C20     -C25     -H71     : -68.655115
 P1      -C20     -C25     -H72     :  48.029446
 P1      -C26     -C27     -C28     :-169.228521
 P1      -C26     -C27     -C32     :  15.446802
 P1      -C26     -C31     -C30     : 169.187631
 P1      -C26     -C31     -O47     : -12.695864
 Pd2     -P1      -C14     -C15     :  68.460513
 Pd2     -P1      -C14     -C19     : -59.531831
 Pd2     -P1      -C14     -H51     :-174.999999
 Pd2     -P1      -C20     -C21     : -96.471340
 Pd2     -P1      -C20     -C25     :  29.693862
 Pd2     -P1      -C20     -H62     : 146.846148
 Pd2     -P1      -C26     -C27     :  -3.609072
 Pd2     -P1      -C26     -C31     :-179.310589
 Pd2     -O2      -C104    -C105    : 161.880797
 Pd2     -O2      -C104    -C106    : -79.940215
 Pd2     -O2      -C104    -C107    :  44.204991
 Pd2     -C6      -C5      -C4      :-176.011176
 Pd2     -C6      -C5      -H13     :   2.202021
 Pd2     -C6      -C7      -C8      : 174.437173
 Pd2     -C6      -C7      -H11     :  -4.232128
 O2      -Pd2     -P1      -C14     :-176.908421
 O2      -Pd2     -P1      -C20     :  69.069023
 O2      -Pd2     -P1      -C26     : -52.389697
 O2      -Pd2     -C6      -C5      :  76.341147
 O2      -Pd2     -C6      -C7      : -95.764938
 O2      -C104    -C105    -H108    :-174.990850
 O2      -C104    -C105    -H109    : -54.383748
 O2      -C104    -C105    -H110    :  64.592477
 O2      -C104    -C106    -H114    :-164.141131
 O2      -C104    -C106    -H115    : -44.170101
 O2      -C104    -C106    -H116    :  74.917060
 O2      -C104    -C107    -H111    :-177.089668
 O2      -C104    -C107    -H112    : -57.204819
 O2      -C104    -C107    -H113    :  62.734402
 C3      -C4      -C5      -C6      :   1.848305
 C3      -C4      -C5      -H13     :-176.362132
 C3      -C8      -C7      -C6      :   0.368332
 C3      -C8      -C7      -H11     : 179.070778
 C4      -C3      -C8      -C7      :  -2.015847
 C4      -C3      -C8      -H12     : 177.971827
 C4      -C5      -C6      -C7      :  -3.368413
 C5      -C4      -C3      -C8      :   0.941111
 C5      -C4      -C3      -F9      :-179.932109
 C5      -C6      -Pd2     -Br118   :  76.098460
 C5      -C6      -C7      -C8      :   2.236226
 C5      -C6      -C7      -H11     :-176.433074
 C6      -Pd2     -P1      -C14     : -22.460981
 C6      -Pd2     -P1      -C20     :-136.483536
 C6      -Pd2     -P1      -C26     : 102.057743
 C6      -Pd2     -O2      -C104    :  37.299083
 C6      -C5      -C4      -H10     :-179.225495
 C6      -C7      -C8      -H12     :-179.619087
 C7      -C6      -Pd2     -Br118   : -96.007625
 C7      -C6      -C5      -H13     : 174.844784
 C7      -C8      -C3      -F9      : 178.856853
 C8      -C3      -C4      -H10     :-178.007583
 F9      -C3      -C4      -H10     :   1.119198
 F9      -C3      -C8      -H12     :  -1.155473
 H10     -C4      -C5      -H13     :   2.564067
 H11     -C7      -C8      -H12     :  -0.916641
 C14     -P1      -Pd2     -Br118   : 158.439657
 C14     -P1      -C20     -C21     : 139.050814
 C14     -P1      -C20     -C25     : -94.783983
 C14     -P1      -C20     -H62     :  22.368302
 C14     -P1      -C26     -C27     : 128.309701
 C14     -P1      -C26     -C31     : -47.391817
 C14     -C15     -C16     -C17     :  55.697950
 C14     -C15     -C16     -H54     : 178.073620
 C14     -C15     -C16     -H55     : -65.147605
 C14     -C19     -C18     -C17     : -53.640562
 C14     -C19     -C18     -H58     :-176.670775
 C14     -C19     -C18     -H59     :  67.118054
 C15     -C14     -P1      -C20     :-171.858680
 C15     -C14     -P1      -C26     : -66.436225
 C15     -C14     -C19     -C18     :  50.736752
 C15     -C14     -C19     -H60     : 171.322707
 C15     -C14     -C19     -H61     : -70.768108
 C15     -C16     -C17     -C18     : -58.357171
 C15     -C16     -C17     -H56     : 179.233505
 C15     -C16     -C17     -H57     :  61.616378
 C16     -C15     -C14     -C19     : -51.977869
 C16     -C15     -C14     -H51     :  65.621722
 C16     -C17     -C18     -C19     :  57.563764
 C16     -C17     -C18     -H58     : 179.749492
 C16     -C17     -C18     -H59     : -63.252335
 C17     -C16     -C15     -H52     : 176.567932
 C17     -C16     -C15     -H53     : -66.339094
 C17     -C18     -C19     -H60     :-175.104562
 C17     -C18     -C19     -H61     :  68.239352
 C18     -C17     -C16     -H54     :-179.953126
 C18     -C17     -C16     -H55     :  62.725412
 C18     -C19     -C14     -H51     : -67.227618
 C19     -C14     -P1      -C20     :  60.148976
 C19     -C14     -P1      -C26     : 165.571431
 C19     -C14     -C15     -H52     :-173.121776
 C19     -C14     -C15     -H53     :  69.373790
 C19     -C18     -C17     -H56     :-179.846863
 C19     -C18     -C17     -H57     : -62.149906
 C20     -P1      -Pd2     -Br118   :  44.417102
 C20     -P1      -C14     -H51     : -55.319192
 C20     -P1      -C26     -C27     :-128.557338
 C20     -P1      -C26     -C31     :  55.741144
 C20     -C21     -C22     -C23     : -55.897929
 C20     -C21     -C22     -H65     :  64.862126
 C20     -C21     -C22     -H66     :-178.893002
 C20     -C25     -C24     -C23     :  58.052105
 C20     -C25     -C24     -H69     : -63.085992
 C20     -C25     -C24     -H70     : 179.876457
 C21     -C20     -P1      -C26     :  35.762834
 C21     -C20     -C25     -C24     : -58.652853
 C21     -C20     -C25     -H71     :  60.419653
 C21     -C20     -C25     -H72     : 177.104213
 C21     -C22     -C23     -C24     :  54.895421
 C21     -C22     -C23     -H67     : -64.892153
 C21     -C22     -C23     -H68     : 178.131119
 C22     -C21     -C20     -C25     :  57.115171
 C22     -C21     -C20     -H62     : -60.278453
 C22     -C23     -C24     -C25     : -55.548678
 C22     -C23     -C24     -H69     :  65.638511
 C22     -C23     -C24     -H70     :-176.932223
 C23     -C22     -C21     -H63     :  65.100811
 C23     -C22     -C21     -H64     :-178.853836
 C23     -C24     -C25     -H71     : -61.620699
 C23     -C24     -C25     -H72     :-177.343151
 C24     -C23     -C22     -H65     : -65.426906
 C24     -C23     -C22     -H66     : 177.409548
 C24     -C25     -C20     -H62     :  57.733775
 C25     -C20     -P1      -C26     : 161.928037
 C25     -C20     -C21     -H63     : -62.882763
 C25     -C20     -C21     -H64     : 179.434147
 C25     -C24     -C23     -H67     :  64.458217
 C25     -C24     -C23     -H68     :-178.613583
 C26     -P1      -Pd2     -Br118   : -77.041619
 C26     -P1      -C14     -H51     :  50.103263
 C26     -P1      -C20     -H62     : -80.919677
 C26     -C27     -C28     -C29     :  -1.988507
 C26     -C27     -C28     -O49     : 178.478298
 C26     -C27     -C32     -C33     :  81.636518
 C26     -C27     -C32     -C37     :-104.407744
 C26     -C31     -C30     -C29     :   2.507040
 C26     -C31     -C30     -H74     :-177.974364
 C26     -C31     -O47     -C48     :-178.704305
 C27     -C26     -C31     -C30     :  -6.845049
 C27     -C26     -C31     -O47     : 171.271456
 C27     -C28     -C29     -C30     :  -2.560170
 C27     -C28     -C29     -H73     : 179.369554
 C27     -C28     -O49     -C50     :-176.632790
 C27     -C32     -C33     -C34     :-175.569594
 C27     -C32     -C33     -C42     :  10.274604
 C27     -C32     -C37     -C36     : 171.384351
 C27     -C32     -C37     -C38     : -18.456162
 C28     -C27     -C26     -C31     :   6.503496
 C28     -C27     -C32     -C33     : -93.854553
 C28     -C27     -C32     -C37     :  80.101185
 C28     -C29     -C30     -C31     :   2.303855
 C28     -C29     -C30     -H74     :-177.223826
 C28     -O49     -C50     -H101    : 178.305029
 C28     -O49     -C50     -H102    : -63.058139
 C28     -O49     -C50     -H103    :  59.531496
 C29     -C28     -C27     -C32     : 173.689049
 C29     -C28     -O49     -C50     :   3.844435
 C29     -C30     -C31     -O47     :-175.539190
 C30     -C29     -C28     -O49     : 176.937111
 C30     -C31     -O47     -C48     :  -0.582512
 C31     -C26     -C27     -C32     :-168.821182
 C31     -C30     -C29     -H73     :-179.580394
 C31     -O47     -C48     -H98     : 179.305091
 C31     -O47     -C48     -H99     :  60.754720
 C31     -O47     -C48     -H100    : -62.133959
 C32     -C27     -C28     -O49     :  -5.844145
 C32     -C33     -C34     -C35     :   2.298221
 C32     -C33     -C34     -H75     :-179.849447
 C32     -C33     -C42     -C41     :  84.025677
 C32     -C33     -C42     -C43     :-154.142806
 C32     -C33     -C42     -H87     : -32.954881
 C32     -C37     -C36     -C35     :   7.241151
 C32     -C37     -C36     -H76     :-173.007534
 C32     -C37     -C38     -C39     :-172.229895
 C32     -C37     -C38     -C40     :  57.908529
 C32     -C37     -C38     -H77     : -58.210986
 C33     -C32     -C37     -C36     : -14.782233
 C33     -C32     -C37     -C38     : 155.377255
 C33     -C34     -C35     -C36     :  -9.778416
 C33     -C34     -C35     -C45     : 173.232798
 C33     -C42     -C41     -H84     :  65.493605
 C33     -C42     -C41     -H85     :-175.196074
 C33     -C42     -C41     -H86     : -53.749022
 C33     -C42     -C43     -H88     : -67.533570
 C33     -C42     -C43     -H89     : 174.134920
 C33     -C42     -C43     -H90     :  54.063344
 C34     -C33     -C32     -C37     :  10.305828
 C34     -C33     -C42     -C41     : -90.111975
 C34     -C33     -C42     -C43     :  31.719542
 C34     -C33     -C42     -H87     : 152.907468
 C34     -C35     -C36     -C37     :   4.889176
 C34     -C35     -C36     -H76     :-174.867420
 C34     -C35     -C45     -C44     : -27.254674
 C34     -C35     -C45     -C46     :  98.494224
 C34     -C35     -C45     -H94     :-144.380361
 C35     -C34     -C33     -C42     : 176.578608
 C35     -C36     -C37     -C38     :-163.220940
 C35     -C45     -C44     -H91     :  66.425348
 C35     -C45     -C44     -H92     : -55.451213
 C35     -C45     -C44     -H93     :-174.422204
 C35     -C45     -C46     -H95     : -64.424936
 C35     -C45     -C46     -H96     :  55.286154
 C35     -C45     -C46     -H97     : 175.729940
 C36     -C35     -C34     -H75     : 172.378653
 C36     -C35     -C45     -C44     : 155.800559
 C36     -C35     -C45     -C46     : -78.450543
 C36     -C35     -C45     -H94     :  38.674872
 C36     -C37     -C38     -C39     :  -2.290333
 C36     -C37     -C38     -C40     :-132.151909
 C36     -C37     -C38     -H77     : 111.728576
 C37     -C32     -C33     -C42     :-163.849974
 C37     -C36     -C35     -C45     :-177.994747
 C37     -C38     -C39     -H78     : -67.700937
 C37     -C38     -C39     -H79     :  54.324852
 C37     -C38     -C39     -H80     : 173.574734
 C37     -C38     -C40     -H81     :  68.082917
 C37     -C38     -C40     -H82     :-172.529516
 C37     -C38     -C40     -H83     : -53.501968
 C38     -C37     -C36     -H76     :  16.530375
 C39     -C38     -C40     -H81     : -63.900033
 C39     -C38     -C40     -H82     :  55.487534
 C39     -C38     -C40     -H83     : 174.515082
 C40     -C38     -C39     -H78     :  66.612033
 C40     -C38     -C39     -H79     :-171.362179
 C40     -C38     -C39     -H80     : -52.112297
 C41     -C42     -C43     -H88     :  55.101190
 C41     -C42     -C43     -H89     : -63.230319
 C41     -C42     -C43     -H90     : 176.698105
 C42     -C33     -C34     -H75     :  -5.569060
 C43     -C42     -C41     -H84     : -61.140056
 C43     -C42     -C41     -H85     :  58.170265
 C43     -C42     -C41     -H86     : 179.617317
 C44     -C45     -C46     -H95     :  62.666751
 C44     -C45     -C46     -H96     :-177.622158
 C44     -C45     -C46     -H97     : -57.178372
 C45     -C35     -C34     -H75     :  -4.610132
 C45     -C35     -C36     -H76     :   2.248657
 C46     -C45     -C44     -H91     : -59.069941
 C46     -C45     -C44     -H92     : 179.053498
 C46     -C45     -C44     -H93     :  60.082507
 O47     -C31     -C30     -H74     :   3.979406
 O49     -C28     -C29     -H73     :  -1.133165
 H51     -C14     -C15     -H52     : -55.522185
 H51     -C14     -C15     -H53     :-173.026619
 H51     -C14     -C19     -H60     :  53.358337
 H51     -C14     -C19     -H61     : 171.267522
 H52     -C15     -C16     -H54     : -61.056399
 H52     -C15     -C16     -H55     :  55.722377
 H53     -C15     -C16     -H54     :  56.036576
 H53     -C15     -C16     -H55     : 172.815351
 H54     -C16     -C17     -H56     :  57.637550
 H54     -C16     -C17     -H57     : -59.979577
 H55     -C16     -C17     -H56     : -59.683912
 H55     -C16     -C17     -H57     :-177.301040
 H56     -C17     -C18     -H58     : -57.661135
 H56     -C17     -C18     -H59     :  59.337038
 H57     -C17     -C18     -H58     :  60.035822
 H57     -C17     -C18     -H59     : 177.033995
 H58     -C18     -C19     -H60     :  61.865225
 H58     -C18     -C19     -H61     : -54.790862
 H59     -C18     -C19     -H60     : -54.345946
 H59     -C18     -C19     -H61     :-171.002033
 H62     -C20     -C21     -H63     : 179.723613
 H62     -C20     -C21     -H64     :  62.040523
 H62     -C20     -C25     -H71     : 176.806281
 H62     -C20     -C25     -H72     : -66.509159
 H63     -C21     -C22     -H65     :-174.139133
 H63     -C21     -C22     -H66     : -57.894262
 H64     -C21     -C22     -H65     : -58.093781
 H64     -C21     -C22     -H66     :  58.151091
 H65     -C22     -C23     -H67     : 174.785521
 H65     -C22     -C23     -H68     :  57.808793
 H66     -C22     -C23     -H67     :  57.621974
 H66     -C22     -C23     -H68     : -59.354754
 H67     -C23     -C24     -H69     :-174.354595
 H67     -C23     -C24     -H70     : -56.925328
 H68     -C23     -C24     -H69     : -57.426395
 H68     -C23     -C24     -H70     :  60.002872
 H69     -C24     -C25     -H71     : 177.241204
 H69     -C24     -C25     -H72     :  61.518752
 H70     -C24     -C25     -H71     :  60.203653
 H70     -C24     -C25     -H72     : -55.518799
 H73     -C29     -C30     -H74     :   0.891925
 H77     -C38     -C39     -H78     :-179.524828
 H77     -C38     -C39     -H79     : -57.499040
 H77     -C38     -C39     -H80     :  61.750842
 H77     -C38     -C40     -H81     :-177.769805
 H77     -C38     -C40     -H82     : -58.382238
 H77     -C38     -C40     -H83     :  60.645310
 H84     -C41     -C42     -H87     :-177.310141
 H85     -C41     -C42     -H87     : -57.999819
 H86     -C41     -C42     -H87     :  63.447233
 H87     -C42     -C43     -H88     : 171.174699
 H87     -C42     -C43     -H89     :  52.843190
 H87     -C42     -C43     -H90     : -67.228387
 H91     -C44     -C45     -H94     :-177.205373
 H92     -C44     -C45     -H94     :  60.918066
 H93     -C44     -C45     -H94     : -58.052925
 H94     -C45     -C46     -H95     :-179.964818
 H94     -C45     -C46     -H96     : -60.253728
 H94     -C45     -C46     -H97     :  60.190058
 C104    -O2      -Pd2     -Br118   :-142.749890
 C105    -C104    -C106    -H114    : -47.846931
 C105    -C104    -C106    -H115    :  72.124099
 C105    -C104    -C106    -H116    :-168.788740
 C105    -C104    -C107    -H111    :  66.660173
 C105    -C104    -C107    -H112    :-173.454977
 C105    -C104    -C107    -H113    : -53.515757
 C106    -C104    -C105    -H108    :  64.362490
 C106    -C104    -C105    -H109    :-175.030408
 C106    -C104    -C105    -H110    : -56.054183
 C106    -C104    -C107    -H111    : -51.221020
 C106    -C104    -C107    -H112    :  68.663830
 C106    -C104    -C107    -H113    :-171.396949
 C107    -C104    -C105    -H108    : -53.864455
 C107    -C104    -C105    -H109    :  66.742647
 C107    -C104    -C105    -H110    :-174.281128
 C107    -C104    -C106    -H114    :  69.566580
 C107    -C104    -C106    -H115    :-170.462389
 C107    -C104    -C106    -H116    : -51.375228
 
  nuclear repulsion energy.......          9020.495898558 hartrees
  
  Detected an organometallic with only one TM atom. 
  
  Oxidation state on metal       2 is     2
  Formal multiplet on metal      2 is     1
  Formal charge on ligand        3 is    -1
  Formal multiplet on ligand     3 is     1
  Formal charge on ligand        4 is    -1
  Formal multiplet on ligand     4 is     1
  Formal charge on ligand        5 is    -1
  Formal multiplet on ligand     5 is     1
  
 
  Will use High-Quality Initial guess for organometallics
       including d-d repulsion (iguess=30)
 
 Non-default options chosen:
   SCF calculation type: DFT(b3pw91-d3)              
   DFT=Becke_3_Parameter/HF+Slater+Becke88+PW91+PW-GGAIIC (B3PW91-D3)
   Geometry will be optimized in redundant internal coordinates
   Solvation energy will be computed using PBF
     -solute cavity energy will not be included
     -surface area terms will not be included
   Vibrational frequencies and related properties will be computed
      from analytic second derivatives
   IR intensities will be computed
   Thermochemical properties will be computed
   Maximum number of geometry steps: 100
   Scaling standard convergence criteria by a factor of   5.00
   Solvent: benzene                                                         
   Internal dielectric constant:    1.000
   Continuum dielectric constant:   2.283
   Solvent probe molecule radius:   2.600
  
 Non-default print settings:
     11=  2
  
 Temporary integer options set:
     21= -1  73=  2
  
  atom       vdw   vdw2    cov     mass  grid  daf  charge   basis
  P1        2.147  2.074  1.060   30.974    Y    Y      Y    ps_6-31g*
  Pd2       1.450  1.450  1.280  105.903    Y    Y      Y    lacv3p*
  O2        1.702  1.600  0.730   15.995    Y    Y      Y    ps_6-31g*
  C3        1.949  1.900  0.770   12.000    Y    Y      Y    ps_6-31g*
  C4        1.949  1.900  0.770   12.000    Y    Y      Y    ps_6-31g*
  C5        1.949  1.900  0.770   12.000    Y    Y      Y    ps_6-31g*
  C6        1.949  1.900  0.770   12.000    Y    Y      Y    ps_6-31g*
  C7        1.949  1.900  0.770   12.000    Y    Y      Y    ps_6-31g*
  C8        1.949  1.900  0.770   12.000    Y    Y      Y    ps_6-31g*
  F9        1.736  1.682  0.720   18.998    Y    Y      Y    ps_6-31g*
  H10       1.597  1.150  0.320    1.008    Y    Y      Y    ps_6-31g*
  H11       1.597  1.150  0.320    1.008    Y    Y      Y    ps_6-31g*
  H12       1.597  1.150  0.320    1.008    Y    Y      Y    ps_6-31g*
  H13       1.597  1.150  0.320    1.008    Y    Y      Y    ps_6-31g*
  C14       1.949  1.900  0.770   12.000    Y    Y      Y    ps_6-31g*
  C15       1.949  1.900  0.770   12.000    Y    Y      Y    ps_6-31g*
  C16       1.949  1.900  0.770   12.000    Y    Y      Y    ps_6-31g*
  C17       1.949  1.900  0.770   12.000    Y    Y      Y    ps_6-31g*
  C18       1.949  1.900  0.770   12.000    Y    Y      Y    ps_6-31g*
  C19       1.949  1.900  0.770   12.000    Y    Y      Y    ps_6-31g*
  C20       1.949  1.900  0.770   12.000    Y    Y      Y    ps_6-31g*
  C21       1.949  1.900  0.770   12.000    Y    Y      Y    ps_6-31g*
  C22       1.949  1.900  0.770   12.000    Y    Y      Y    ps_6-31g*
  C23       1.949  1.900  0.770   12.000    Y    Y      Y    ps_6-31g*
  C24       1.949  1.900  0.770   12.000    Y    Y      Y    ps_6-31g*
  C25       1.949  1.900  0.770   12.000    Y    Y      Y    ps_6-31g*
  C26       1.949  1.900  0.770   12.000    Y    Y      Y    ps_6-31g*
  C27       1.949  1.900  0.770   12.000    Y    Y      Y    ps_6-31g*
  C28       1.949  1.900  0.770   12.000    Y    Y      Y    ps_6-31g*
  C29       1.949  1.900  0.770   12.000    Y    Y      Y    ps_6-31g*
  C30       1.949  1.900  0.770   12.000    Y    Y      Y    ps_6-31g*
  C31       1.949  1.900  0.770   12.000    Y    Y      Y    ps_6-31g*
  C32       1.949  1.900  0.770   12.000    Y    Y      Y    ps_6-31g*
  C33       1.949  1.900  0.770   12.000    Y    Y      Y    ps_6-31g*
  C34       1.949  1.900  0.770   12.000    Y    Y      Y    ps_6-31g*
  C35       1.949  1.900  0.770   12.000    Y    Y      Y    ps_6-31g*
  C36       1.949  1.900  0.770   12.000    Y    Y      Y    ps_6-31g*
  C37       1.949  1.900  0.770   12.000    Y    Y      Y    ps_6-31g*
  C38       1.949  1.900  0.770   12.000    Y    Y      Y    ps_6-31g*
  C39       1.949  1.900  0.770   12.000    Y    Y      Y    ps_6-31g*
  C40       1.949  1.900  0.770   12.000    Y    Y      Y    ps_6-31g*
  C41       1.949  1.900  0.770   12.000    Y    Y      Y    ps_6-31g*
  C42       1.949  1.900  0.770   12.000    Y    Y      Y    ps_6-31g*
  C43       1.949  1.900  0.770   12.000    Y    Y      Y    ps_6-31g*
  C44       1.949  1.900  0.770   12.000    Y    Y      Y    ps_6-31g*
  C45       1.949  1.900  0.770   12.000    Y    Y      Y    ps_6-31g*
  C46       1.949  1.900  0.770   12.000    Y    Y      Y    ps_6-31g*
  O47       1.702  1.600  0.730   15.995    Y    Y      Y    ps_6-31g*
  C48       1.949  1.900  0.770   12.000    Y    Y      Y    ps_6-31g*
  O49       1.702  1.600  0.730   15.995    Y    Y      Y    ps_6-31g*
  C50       1.949  1.900  0.770   12.000    Y    Y      Y    ps_6-31g*
  H51       1.597  1.150  0.320    1.008    Y    Y      Y    ps_6-31g*
  H52       1.597  1.150  0.320    1.008    Y    Y      Y    ps_6-31g*
  H53       1.597  1.150  0.320    1.008    Y    Y      Y    ps_6-31g*
  H54       1.597  1.150  0.320    1.008    Y    Y      Y    ps_6-31g*
  H55       1.597  1.150  0.320    1.008    Y    Y      Y    ps_6-31g*
  H56       1.597  1.150  0.320    1.008    Y    Y      Y    ps_6-31g*
  H57       1.597  1.150  0.320    1.008    Y    Y      Y    ps_6-31g*
  H58       1.597  1.150  0.320    1.008    Y    Y      Y    ps_6-31g*
  H59       1.597  1.150  0.320    1.008    Y    Y      Y    ps_6-31g*
  H60       1.597  1.150  0.320    1.008    Y    Y      Y    ps_6-31g*
  H61       1.597  1.150  0.320    1.008    Y    Y      Y    ps_6-31g*
  H62       1.597  1.150  0.320    1.008    Y    Y      Y    ps_6-31g*
  H63       1.597  1.150  0.320    1.008    Y    Y      Y    ps_6-31g*
  H64       1.597  1.150  0.320    1.008    Y    Y      Y    ps_6-31g*
  H65       1.597  1.150  0.320    1.008    Y    Y      Y    ps_6-31g*
  H66       1.597  1.150  0.320    1.008    Y    Y      Y    ps_6-31g*
  H67       1.597  1.150  0.320    1.008    Y    Y      Y    ps_6-31g*
  H68       1.597  1.150  0.320    1.008    Y    Y      Y    ps_6-31g*
  H69       1.597  1.150  0.320    1.008    Y    Y      Y    ps_6-31g*
  H70       1.597  1.150  0.320    1.008    Y    Y      Y    ps_6-31g*
  H71       1.597  1.150  0.320    1.008    Y    Y      Y    ps_6-31g*
  H72       1.597  1.150  0.320    1.008    Y    Y      Y    ps_6-31g*
  H73       1.597  1.150  0.320    1.008    Y    Y      Y    ps_6-31g*
  H74       1.597  1.150  0.320    1.008    Y    Y      Y    ps_6-31g*
  H75       1.597  1.150  0.320    1.008    Y    Y      Y    ps_6-31g*
  H76       1.597  1.150  0.320    1.008    Y    Y      Y    ps_6-31g*
  H77       1.597  1.150  0.320    1.008    Y    Y      Y    ps_6-31g*
  H78       1.597  1.150  0.320    1.008    Y    Y      Y    ps_6-31g*
  H79       1.597  1.150  0.320    1.008    Y    Y      Y    ps_6-31g*
  H80       1.597  1.150  0.320    1.008    Y    Y      Y    ps_6-31g*
  H81       1.597  1.150  0.320    1.008    Y    Y      Y    ps_6-31g*
  H82       1.597  1.150  0.320    1.008    Y    Y      Y    ps_6-31g*
  H83       1.597  1.150  0.320    1.008    Y    Y      Y    ps_6-31g*
  H84       1.597  1.150  0.320    1.008    Y    Y      Y    ps_6-31g*
  H85       1.597  1.150  0.320    1.008    Y    Y      Y    ps_6-31g*
  H86       1.597  1.150  0.320    1.008    Y    Y      Y    ps_6-31g*
  H87       1.597  1.150  0.320    1.008    Y    Y      Y    ps_6-31g*
  H88       1.597  1.150  0.320    1.008    Y    Y      Y    ps_6-31g*
  H89       1.597  1.150  0.320    1.008    Y    Y      Y    ps_6-31g*
  H90       1.597  1.150  0.320    1.008    Y    Y      Y    ps_6-31g*
  H91       1.597  1.150  0.320    1.008    Y    Y      Y    ps_6-31g*
  H92       1.597  1.150  0.320    1.008    Y    Y      Y    ps_6-31g*
  H93       1.597  1.150  0.320    1.008    Y    Y      Y    ps_6-31g*
  H94       1.597  1.150  0.320    1.008    Y    Y      Y    ps_6-31g*
  H95       1.597  1.150  0.320    1.008    Y    Y      Y    ps_6-31g*
  H96       1.597  1.150  0.320    1.008    Y    Y      Y    ps_6-31g*
  H97       1.597  1.150  0.320    1.008    Y    Y      Y    ps_6-31g*
  H98       1.597  1.150  0.320    1.008    Y    Y      Y    ps_6-31g*
  H99       1.597  1.150  0.320    1.008    Y    Y      Y    ps_6-31g*
  H100      1.597  1.150  0.320    1.008    Y    Y      Y    ps_6-31g*
  H101      1.597  1.150  0.320    1.008    Y    Y      Y    ps_6-31g*
  H102      1.597  1.150  0.320    1.008    Y    Y      Y    ps_6-31g*
  H103      1.597  1.150  0.320    1.008    Y    Y      Y    ps_6-31g*
  C104      1.949  1.900  0.770   12.000    Y    Y      Y    ps_6-31g*
  C105      1.949  1.900  0.770   12.000    Y    Y      Y    ps_6-31g*
  C106      1.949  1.900  0.770   12.000    Y    Y      Y    ps_6-31g*
  C107      1.949  1.900  0.770   12.000    Y    Y      Y    ps_6-31g*
  H108      1.597  1.150  0.320    1.008    Y    Y      Y    ps_6-31g*
  H109      1.597  1.150  0.320    1.008    Y    Y      Y    ps_6-31g*
  H110      1.597  1.150  0.320    1.008    Y    Y      Y    ps_6-31g*
  H111      1.597  1.150  0.320    1.008    Y    Y      Y    ps_6-31g*
  H112      1.597  1.150  0.320    1.008    Y    Y      Y    ps_6-31g*
  H113      1.597  1.150  0.320    1.008    Y    Y      Y    ps_6-31g*
  H114      1.597  1.150  0.320    1.008    Y    Y      Y    ps_6-31g*
  H115      1.597  1.150  0.320    1.008    Y    Y      Y    ps_6-31g*
  H116      1.597  1.150  0.320    1.008    Y    Y      Y    ps_6-31g*
  Br118     2.095  2.095  1.140   78.918    Y    Y      Y    lav3p*
 
  atom      formal  2spin      esp    mulk    frag
  P1           0       0        Y    0.000       0
  Pd2          2       0        Y    0.000       0
  O2          -1       0        Y    0.000       0
  C3          -1       0        Y    0.000       0
  Br118       -1       0        Y    0.000       0
  
  end of program pre
   
 Time(pre)  user:       3.215  user+sys:       3.215  wallclock:       1.160
  
  start of program onee
  
  smallest eigenvalue of S:    3.290E-04
  number of canonical orbitals.....          874
  end of program onee
   
 Time(onee)  user:      18.090  user+sys:      18.090  wallclock:       4.753
  
  start of program hfig
  
  initial wavefunction generated automatically from atomic wavefunctions
  Only one state below 0.010000
  Skip d-d repulsion considerations 
 
  Irreducible     Total no   No of occupied orbitals 
  representation  orbitals   Shell_1  Shell_2    ...
  No Symm          874        205
  ------------------------
  Orbital occupation/shell    1.000
 
  end of program hfig
   
 Time(hfig)  user:       4.208  user+sys:       4.208  wallclock:       1.494
  
  start of program probe
  
  end of program probe
   
 Time(probe)  user:       2.590  user+sys:       2.590  wallclock:       0.916
  
  start of program grid
  
   grid     grid set  grid #  grid sym
  ------    --------  ------  --------
  coarse        0        0        1
  medium        2        1        1
  fine          0        0        1
  ultrafine     4        2        1
  charge       -1        3        1
  gradient      4        2        1
  density       0        0        1
  DFT-fine    -11        4        1
  DFT-med.    -10        5        1
  DFT-grad    -12        6        1
  DFT-der2     -8        7        1
  DFT-cphf     -9        8        1
  LMP2-enrg     4        2        1
  LMP2-grad     2        1        1
  DFT-cphf2   -15        9        1
  PBF-dens      0        0        1
  plotting      0        0        1
  Rel-grad    -17        0        1
  
  number of gridpoints: 
     atom           P1         Pd2          O2          C3          C4          C5          C6
  grid # 1         615         337         118          77          91          93          98
  grid # 2         437         300         476         330         315         319         383
  grid # 3          11         206          22          19          10           6           6
  grid # 4        8714        8714        8714        8714        8714        8714        8714
  grid # 5        1192        1192        1192        1192        1192        1192        1192
  grid # 6        9132        9132        5922        5922        5922        5922        5922
  grid # 7       23034       32968       23382       13950       13950       13950       13950
  grid # 8         722        1150         774         748         748         748         748
  grid # 9         366        2198         416         394         394         394         394
   
  number of gridpoints: 
     atom           C7          C8          F9         H10         H11         H12         H13
  grid # 1          93          91         584         110         106         114         104
  grid # 2         318         317         565         456         432         458         419
  grid # 3           6          11         348         290         140         344          40
  grid # 4        8714        8714        8714        8714        8714        8714        8714
  grid # 5        1192        1192        1192        1192        1192        1192        1192
  grid # 6        5922        5922        5922        5922        5922        5922        5922
  grid # 7       13950       13950       23190       15206       15206       15206       15206
  grid # 8         748         748         770         786         786         786         786
  grid # 9         394         394         420         420         420         420         420
   
  number of gridpoints: 
     atom          C14         C15         C16         C17         C18         C19         C20
  grid # 1          79          90          92          92          92          90          80
  grid # 2         332         280         279         277         277         276         329
  grid # 3           6           6           6           6           6           6           6
  grid # 4        8714        8714        8714        8714        8714        8714        8714
  grid # 5        1192        1192        1192        1192        1192        1192        1192
  grid # 6        5922        5922        5922        5922        5922        5922        5922
  grid # 7       13950       13950       13950       13950       13950       13950       13950
  grid # 8         748         748         748         748         748         748         748
  grid # 9         394         394         394         394         394         394         394
   
  number of gridpoints: 
     atom          C21         C22         C23         C24         C25         C26         C27
  grid # 1          92          92          92          92          91          91          97
  grid # 2         275         276         278         279         276         387         349
  grid # 3           6           6           6           6           6           6           6
  grid # 4        8714        8714        8714        8714        8714        8714        8714
  grid # 5        1192        1192        1192        1192        1192        1192        1192
  grid # 6        5922        5922        5922        5922        5922        5922        5922
  grid # 7       13950       13950       13950       13950       13950       13950       13950
  grid # 8         748         748         748         748         748         748         748
  grid # 9         394         394         394         394         394         394         394
   
  number of gridpoints: 
     atom          C28         C29         C30         C31         C32         C33         C34
  grid # 1          92          95          95          92         100          98          94
  grid # 2         341         322         324         343         363         359         323
  grid # 3          10          25          29          11           8          10          16
  grid # 4        8714        8714        8714        8714        8714        8714        8714
  grid # 5        1192        1192        1192        1192        1192        1192        1192
  grid # 6        5922        5922        5922        5922        5922        5922        5922
  grid # 7       13950       13950       13950       13950       13950       13950       13950
  grid # 8         748         748         748         748         748         748         748
  grid # 9         394         394         394         394         394         394         394
   
  number of gridpoints: 
     atom          C35         C36         C37         C38         C39         C40         C41
  grid # 1         100          94          96          92          80          82          81
  grid # 2         360         324         361         308         241         234         239
  grid # 3          13          18          14           6           6           6           6
  grid # 4        8714        8714        8714        8714        8714        8714        8714
  grid # 5        1192        1192        1192        1192        1192        1192        1192
  grid # 6        5922        5922        5922        5922        5922        5922        5922
  grid # 7       13950       13950       13950       13950       13950       13950       13950
  grid # 8         748         748         748         748         748         748         748
  grid # 9         394         394         394         394         394         394         394
   
  number of gridpoints: 
     atom          C42         C43         C44         C45         C46         O47         C48
  grid # 1          91          81          79          92          79         114          76
  grid # 2         303         237         241         300         243         429         222
  grid # 3           6           6           6           6           6          11           6
  grid # 4        8714        8714        8714        8714        8714        8714        8714
  grid # 5        1192        1192        1192        1192        1192        1192        1192
  grid # 6        5922        5922        5922        5922        5922        5922        5922
  grid # 7       13950       13950       13950       13950       13950       23382       13950
  grid # 8         748         748         748         748         748         774         748
  grid # 9         394         394         394         394         394         416         394
   
  number of gridpoints: 
     atom          O49         C50         H51         H52         H53         H54         H55
  grid # 1         114          76          98         102         101         112         110
  grid # 2         436         223         413         426         416         457         448
  grid # 3          21           6          64          97          40         303         241
  grid # 4        8714        8714        8714        8714        8714        8714        8714
  grid # 5        1192        1192        1192        1192        1192        1192        1192
  grid # 6        5922        5922        5922        5922        5922        5922        5922
  grid # 7       23382       13950       15206       15206       15206       15206       15206
  grid # 8         774         748         786         786         786         786         786
  grid # 9         416         394         420         420         420         420         420
   
  number of gridpoints: 
     atom          H56         H57         H58         H59         H60         H61         H62
  grid # 1         112         108         112         110         102          98          98
  grid # 2         459         436         457         447         425         418         416
  grid # 3         332         136         321         245         117          53          57
  grid # 4        8714        8714        8714        8714        8714        8714        8714
  grid # 5        1192        1192        1192        1192        1192        1192        1192
  grid # 6        5922        5922        5922        5922        5922        5922        5922
  grid # 7       15206       15206       15206       15206       15206       15206       15206
  grid # 8         786         786         786         786         786         786         786
  grid # 9         420         420         420         420         420         420         420
   
  number of gridpoints: 
     atom          H63         H64         H65         H66         H67         H68         H69
  grid # 1         101         105         109         111         110         112         110
  grid # 2         419         426         443         455         448         459         449
  grid # 3          38         104         215         296         232         331         248
  grid # 4        8714        8714        8714        8714        8714        8714        8714
  grid # 5        1192        1192        1192        1192        1192        1192        1192
  grid # 6        5922        5922        5922        5922        5922        5922        5922
  grid # 7       15206       15206       15206       15206       15206       15206       15206
  grid # 8         786         786         786         786         786         786         786
  grid # 9         420         420         420         420         420         420         420
   
  number of gridpoints: 
     atom          H70         H71         H72         H73         H74         H75         H76
  grid # 1         112          99         103         111         110         102         104
  grid # 2         456         427         431         442         438         424         421
  grid # 3         323          87         122         251         240          91          82
  grid # 4        8714        8714        8714        8714        8714        8714        8714
  grid # 5        1192        1192        1192        1192        1192        1192        1192
  grid # 6        5922        5922        5922        5922        5922        5922        5922
  grid # 7       15206       15206       15206       15206       15206       15206       15206
  grid # 8         786         786         786         786         786         786         786
  grid # 9         420         420         420         420         420         420         420
   
  number of gridpoints: 
     atom          H77         H78         H79         H80         H81         H82         H83
  grid # 1         104         103         105         109         101         109         102
  grid # 2         427         423         444         451         419         451         423
  grid # 3         122         135         254         299          65         277          77
  grid # 4        8714        8714        8714        8714        8714        8714        8714
  grid # 5        1192        1192        1192        1192        1192        1192        1192
  grid # 6        5922        5922        5922        5922        5922        5922        5922
  grid # 7       15206       15206       15206       15206       15206       15206       15206
  grid # 8         786         786         786         786         786         786         786
  grid # 9         420         420         420         420         420         420         420
   
  number of gridpoints: 
     atom          H84         H85         H86         H87         H88         H89         H90
  grid # 1         109         110         102         105         107         110         101
  grid # 2         451         453         427         422         436         448         430
  grid # 3         281         307         113          65         223         260         123
  grid # 4        8714        8714        8714        8714        8714        8714        8714
  grid # 5        1192        1192        1192        1192        1192        1192        1192
  grid # 6        5922        5922        5922        5922        5922        5922        5922
  grid # 7       15206       15206       15206       15206       15206       15206       15206
  grid # 8         786         786         786         786         786         786         786
  grid # 9         420         420         420         420         420         420         420
   
  number of gridpoints: 
     atom          H91         H92         H93         H94         H95         H96         H97
  grid # 1         105         101         109         105         110         107         110
  grid # 2         438         427         444         426         455         453         453
  grid # 3         228          98         252          78         302         267         317
  grid # 4        8714        8714        8714        8714        8714        8714        8714
  grid # 5        1192        1192        1192        1192        1192        1192        1192
  grid # 6        5922        5922        5922        5922        5922        5922        5922
  grid # 7       15206       15206       15206       15206       15206       15206       15206
  grid # 8         786         786         786         786         786         786         786
  grid # 9         420         420         420         420         420         420         420
   
  number of gridpoints: 
     atom          H98         H99        H100        H101        H102        H103        C104
  grid # 1         109         111         111         110         109         110          90
  grid # 2         457         449         450         461         446         448         325
  grid # 3         316         295         285         365         267         291           6
  grid # 4        8714        8714        8714        8714        8714        8714        8714
  grid # 5        1192        1192        1192        1192        1192        1192        1192
  grid # 6        5922        5922        5922        5922        5922        5922        5922
  grid # 7       15206       15206       15206       15206       15206       15206       13950
  grid # 8         786         786         786         786         786         786         748
  grid # 9         420         420         420         420         420         420         394
   
  number of gridpoints: 
     atom         C105        C106        C107        H108        H109        H110        H111
  grid # 1          80          80          81         108         107         105         109
  grid # 2         241         237         241         449         446         427         451
  grid # 3           6           6           6         285         222         118         281
  grid # 4        8714        8714        8714        8714        8714        8714        8714
  grid # 5        1192        1192        1192        1192        1192        1192        1192
  grid # 6        5922        5922        5922        5922        5922        5922        5922
  grid # 7       13950       13950       13950       15206       15206       15206       15206
  grid # 8         748         748         748         786         786         786         786
  grid # 9         394         394         394         420         420         420         420
   
  number of gridpoints: 
     atom         H112        H113        H114        H115        H116       Br118       total
  grid # 1         105         110         108         106         105         470       13396
  grid # 2         430         450         449         437         429         449       45500
  grid # 3         112         269         284         169         112         106       14405
  grid # 4        8714        8714        8714        8714        8714        8714     1028252
  grid # 5        1192        1192        1192        1192        1192        1192      140656
  grid # 6        5922        5922        5922        5922        5922        9132      708426
  grid # 7       15206       15206       15206       15206       15206       11582     1792266
  grid # 8         786         786         786         786         786         694       91194
  grid # 9         420         420         420         420         420         358       50040
   
  end of program grid
   
 Time(grid)  user:    1192.097  user+sys:    1192.097  wallclock:     301.004
  
  start of program rwr
  
  end of program rwr
   
 Time(rwr)  user:      80.732  user+sys:      80.732  wallclock:      24.217
  
  start of program scf
  
 number of electrons..........        410
 number of alpha electrons....        205
 number of beta electrons.....        205
 number of orbitals, total....        874
 number of doubly-occ'd orbs..        205
 number of open shell orbs....          0
 number of occupied orbitals..        205
 number of virtual orbitals...        669
 number of hamiltonians.......          1
 number of shells.............          1
 SCF type: DFT=Becke_3_Parameter/HF+Slater+Becke88+PW91+PW-GGAIIC (B3PW91-D3)
 Energy computed using pseudospectral method.
 Convergence Criterion:
    Energy (econv):       1.00E-05
    RMS density (dconv):  5.00E-06
  
       i  u  d  i  g                   
       t  p  i  c  r                                 RMS    maximum
       e  d  i  u  i                       energy  density   DIIS  
       r  t  s  t  d       total energy    change  change    error 
  
etot    1  N  N  5  M   -2553.92491900056           1.9E-03  2.1E-01
etot    2  Y  Y  6  M   -2558.65138111340  4.7E+00  2.8E-03  1.3E-01
etot    3  Y  Y  6  M   -2560.01901615911  1.4E+00  1.2E-03  6.5E-02
etot    4  N  Y  2  U   -2560.47131952487  4.5E-01  8.1E-04  4.4E-02
etot    5  Y  Y  6  M   -2560.59469958493  1.2E-01  5.4E-04  2.6E-02
etot    6  N  Y  2  U   -2560.60567443231  1.1E-02  4.2E-04  1.0E-02
etot    7  Y  Y  6  M   -2560.61214468156  6.5E-03  7.2E-05  3.8E-03
etot    8  N  Y  2  U   -2560.61635785760  4.2E-03  1.9E-05  7.9E-04
etot    9  N  Y  2  U   -2560.61649438769  1.4E-04  8.6E-06  3.6E-04
etot   10  N  Y  2  U   -2560.61650957478  1.5E-05  3.3E-06  1.1E-04
etot   11  N  N  2  U   -2560.61651344619  3.9E-06  0.0E+00  0.0E+00
 
  Computing the dispersion energy correction and its gradients...
  
  
 Energy components, in hartrees:
   (A)  Nuclear repulsion............    9020.49589855820
   (E)  Total one-electron terms.....  -21568.89330088675
   (F)    Electron-nuclear...........  -24026.08918384034
   (H)    Kinetic....................    2457.19588295360
   (I)  Total two-electron terms.....    9987.78088888235
   (J)    Coulomb....................   10331.54579065700
   (K)    Exchange+Correlation.......    -343.76490177464
   (L)  Electronic energy............  -11581.11241200440  (E+I)
   (N0) D3 correction................      -0.24675966807
   (N)  Total energy.................   -2560.86327311426  (A+L+N0)
   (O)  Gas phase energy.............   -2560.86327311426
  
 SCFE: SCF energy: DFT(b3pw91-d3)     -2560.86327311426 hartrees   iterations:  11
  
 
 HOMO energy:    -0.05187
 LUMO energy:     0.05412
 
  Orbital energies (hartrees): 
   -76.97482   -24.57971   -19.09963   -19.09361   -18.92486   -10.16094
   -10.16062   -10.15551   -10.15170   -10.13673   -10.10832   -10.10765
   -10.10289   -10.10098   -10.07745   -10.07737   -10.07715   -10.07464
   -10.07295   -10.07160   -10.07009   -10.06962   -10.06929   -10.06869
   -10.06823   -10.06798   -10.06770   -10.06571   -10.06477   -10.06336
   -10.06317   -10.06138   -10.06110   -10.05993   -10.05619   -10.05616
   -10.05518   -10.05512   -10.05453   -10.04920   -10.04870   -10.04595
   -10.04594   -10.04392   -10.04319   -10.03819   -10.03333   -10.01384
   -10.01089   -10.00839    -6.47286    -4.63149    -4.63025    -4.62750
    -3.20637    -1.94014    -1.93642    -1.90236    -1.11125    -1.00694
    -1.00013    -0.79560    -0.78651    -0.75516    -0.74772    -0.74188
    -0.73750    -0.71096    -0.70963    -0.69879    -0.69070    -0.67099
    -0.66553    -0.65507    -0.65248    -0.64582    -0.64305    -0.63947
    -0.62614    -0.62096    -0.61911    -0.61572    -0.61250    -0.58995
    -0.57882    -0.57723    -0.56498    -0.54902    -0.54789    -0.54550
    -0.53735    -0.52495    -0.51987    -0.51545    -0.50924    -0.50782
    -0.50380    -0.49875    -0.49466    -0.48605    -0.47589    -0.46553
    -0.45667    -0.45204    -0.44268    -0.43745    -0.43367    -0.43338
    -0.42787    -0.41257    -0.40795    -0.39407    -0.39337    -0.38668
    -0.38177    -0.37511    -0.37253    -0.36698    -0.36113    -0.35639
    -0.35456    -0.35356    -0.35313    -0.35167    -0.34936    -0.34847
    -0.34502    -0.34345    -0.34106    -0.33816    -0.33733    -0.33287
    -0.32771    -0.32563    -0.32086    -0.31899    -0.31510    -0.31308
    -0.31092    -0.30494    -0.30381    -0.30222    -0.30167    -0.29857
    -0.29313    -0.29117    -0.28685    -0.28376    -0.28325    -0.28156
    -0.28113    -0.28053    -0.27900    -0.27546    -0.27206    -0.26772
    -0.26629    -0.26160    -0.25916    -0.25846    -0.25639    -0.25524
    -0.25327    -0.25010    -0.24884    -0.24684    -0.24506    -0.24235
    -0.23900    -0.23855    -0.23485    -0.23065    -0.22806    -0.22723
    -0.22449    -0.22366    -0.22299    -0.21918    -0.21760    -0.21552
    -0.21148    -0.20968    -0.20507    -0.20435    -0.20250    -0.20132
    -0.19750    -0.19449    -0.19126    -0.18445    -0.16991    -0.16180
    -0.14669    -0.14265    -0.13546    -0.13096    -0.12458    -0.11823
    -0.11440    -0.10379    -0.09480    -0.08006    -0.07315    -0.06928
    -0.05187     0.05412     0.08552     0.09668     0.10319     0.10537
     0.11791     0.12507     0.13570     0.14882     0.15383
 
  end of program scf
   
 Time(scf)  user:    1012.829  user+sys:    1012.829  wallclock:     257.490
  
  start of program der1a
  
  end of program der1a
   
 Time(der1a)  user:      55.619  user+sys:      55.619  wallclock:      14.117
  
  start of program rwr
  
  end of program rwr
   
 Time(rwr)  user:      96.165  user+sys:      96.165  wallclock:      32.261
  
  start of program der1b
  
   
  forces (hartrees/bohr) : total     
   
 atom  label           x              y              z
 ---- --------   -------------  -------------  -------------
    1 P1         -2.690844E-03   4.289120E-03   1.122813E-02
    2 Pd2         1.704807E-02  -1.315459E-02  -5.391437E-03
    3 O2          1.313346E-02  -2.457120E-03   9.977699E-03
    4 C3         -1.383502E-03   7.022794E-04   3.295498E-05
    5 C4         -6.857354E-05   2.889443E-04  -2.417685E-04
    6 C5          2.839251E-03  -5.766071E-04   2.886103E-05
    7 C6         -1.349516E-03   3.411512E-03   2.588233E-04
    8 C7          2.708199E-03  -2.417116E-03   1.536154E-04
    9 C8          9.146503E-05  -2.336406E-04  -2.668681E-04
   10 F9          2.963175E-03  -1.083209E-03   9.012273E-05
   11 H10         2.114081E-04   1.103862E-04  -3.932358E-05
   12 H11        -6.164389E-04  -3.912970E-05   3.865218E-04
   13 H12         2.749229E-04  -3.829072E-04   1.087584E-04
   14 H13        -6.079191E-04   4.675080E-04   8.782248E-05
   15 C14        -1.632234E-03  -7.657364E-04  -1.057083E-03
   16 C15         3.147483E-04   8.358878E-04  -4.918170E-04
   17 C16        -9.832787E-05  -3.794015E-04   8.178471E-04
   18 C17        -1.080235E-04   5.222508E-05   2.127722E-04
   19 C18        -4.289861E-04  -2.598313E-04   7.180350E-04
   20 C19         1.163513E-04  -3.976318E-04  -3.678835E-04
   21 C20        -1.139803E-03   1.690424E-04  -6.730119E-04
   22 C21        -4.222908E-03  -2.652084E-04   4.153653E-03
   23 C22         1.811800E-03  -1.227876E-03  -8.841346E-04
   24 C23        -3.508562E-04  -1.687055E-04   9.075108E-04
   25 C24         6.417746E-04  -1.827263E-03  -1.076972E-03
   26 C25         1.514175E-03   3.295762E-03   7.693815E-04
   27 C26         6.181491E-04  -5.840185E-04  -2.910924E-03
   28 C27         3.120772E-05   1.142836E-03   2.111261E-03
   29 C28         7.042046E-04   2.189023E-03  -4.363662E-03
   30 C29        -2.672283E-04  -1.086454E-03   1.821056E-03
   31 C30         6.797284E-04   1.587647E-03  -6.065075E-04
   32 C31        -1.662184E-03  -4.337679E-03   1.926671E-03
   33 C32        -2.199103E-03  -7.670212E-04   1.894096E-03
   34 C33        -4.408413E-04  -3.503661E-03   1.698195E-03
   35 C34         7.684890E-04  -7.346281E-03   8.584983E-04
   36 C35        -3.656864E-03   5.625803E-04  -4.266210E-03
   37 C36        -1.963824E-04  -1.086289E-04  -7.686507E-04
   38 C37         1.644616E-03   2.360504E-03   7.662478E-04
   39 C38        -1.392351E-03   6.972782E-04   2.643215E-04
   40 C39         3.271283E-04  -3.826115E-04  -4.820684E-04
   41 C40         2.222373E-04  -2.807136E-04   5.686800E-04
   42 C41         1.347426E-03  -7.737044E-05  -2.911654E-04
   43 C42        -3.378486E-04   2.047189E-03   2.293524E-03
   44 C43        -3.052896E-03   3.281877E-03  -8.810558E-04
   45 C44         8.985381E-04   2.012909E-03   6.973922E-04
   46 C45        -5.302825E-04   6.988504E-04  -1.120694E-03
   47 C46         6.453026E-04   4.876759E-04  -2.310401E-04
   48 O47        -1.802659E-04   1.972321E-03  -7.259787E-03
   49 C48         7.951640E-04  -1.754971E-04   6.616520E-03
   50 O49        -2.554642E-03  -7.292085E-03  -2.190067E-04
   51 C50         2.298084E-03   5.954938E-03   2.197826E-03
   52 H51         1.122621E-03   2.078446E-04  -1.023287E-03
   53 H52        -6.074813E-06  -2.511073E-04   2.950485E-05
   54 H53        -1.283952E-04   3.009593E-04   3.210498E-04
   55 H54         3.682805E-04  -1.210462E-04  -5.812310E-05
   56 H55        -9.320142E-05   1.205858E-04  -5.904124E-04
   57 H56         5.590649E-04  -3.346785E-05  -5.063645E-04
   58 H57        -3.439118E-04  -1.048811E-04  -5.523939E-05
   59 H58         3.673738E-04   2.079525E-04  -4.056046E-05
[...]
    H76      X     0.63267  -0.01275  -0.00514  -0.00132   0.00230  -0.00701
    H76      Y    -0.43956   0.00891   0.00357   0.00090  -0.00169   0.00902
    H76      Z     0.56135  -0.01138  -0.00463  -0.00120   0.00105  -0.01068
    H77      X    -0.00172  -0.00008   0.00030   0.00037  -0.00054   0.00001
    H77      Y    -0.00294  -0.00006   0.00041   0.00025  -0.00029  -0.00087
    H77      Z    -0.00186  -0.00004   0.00016   0.00019  -0.00029  -0.00073
    H78      X     0.00260  -0.00073   0.00025   0.00005  -0.00030   0.00119
    H78      Y     0.00406  -0.00054   0.00016   0.00003  -0.00019   0.00264
    H78      Z     0.00264  -0.00051   0.00014   0.00002  -0.00011   0.00176
    H79      X    -0.02442   0.00017   0.00022   0.00009   0.00037   0.00157
    H79      Y    -0.01115   0.00006   0.00008   0.00003   0.00029   0.00097
    H79      Z     0.02815  -0.00024  -0.00028  -0.00011  -0.00039  -0.00138
    H80      X    -0.00802   0.00033  -0.00016  -0.00017   0.00025   0.00047
    H80      Y     0.01443  -0.00061   0.00022   0.00028  -0.00042  -0.00125
    H80      Z     0.00992  -0.00038   0.00008   0.00014  -0.00024  -0.00046
    H81      X     0.00464   0.00099  -0.00019   0.00059  -0.00022   0.00769
    H81      Y     0.00456   0.00103  -0.00022   0.00062  -0.00022   0.00638
    H81      Z     0.00205   0.00064  -0.00007   0.00024  -0.00008   0.00178
    H82      X     0.00231  -0.00006  -0.00056  -0.00036   0.00009   0.00004
    H82      Y    -0.00354  -0.00006   0.00089   0.00054  -0.00012   0.00134
    H82      Z    -0.00174  -0.00003   0.00028   0.00013  -0.00004   0.00031
    H83      X     0.00497  -0.00009  -0.00089   0.00113  -0.00019   0.00254
    H83      Y    -0.00450  -0.00007   0.00074  -0.00091   0.00016  -0.00154
    H83      Z     0.00884  -0.00005  -0.00162   0.00167  -0.00028   0.00383
    H84      X     0.00015   0.00004   0.00002   0.00004  -0.00116   0.00001
    H84      Y     0.00012   0.00003   0.00008   0.00002  -0.00121  -0.00001
    H84      Z    -0.00021  -0.00006  -0.00009  -0.00006   0.00214   0.00002
    H85      X    -0.00037  -0.00016   0.00041   0.00070  -0.00111  -0.00030
    H85      Y     0.00016   0.00005  -0.00014  -0.00027   0.00013   0.00006
    H85      Z    -0.00031  -0.00012   0.00031   0.00049  -0.00074  -0.00021
    H86      X    -0.00001   0.00005   0.00041   0.00004  -0.00140  -0.00002
    H86      Y     0.00005  -0.00009  -0.00076  -0.00028   0.00237   0.00005
    H86      Z     0.00002  -0.00004  -0.00045  -0.00017   0.00151   0.00004
    H87      X     0.00044   0.00008   0.00047   0.00006  -0.00147   0.00008
    H87      Y     0.00033   0.00009   0.00034   0.00013   0.00026   0.00014
    H87      Z    -0.00126  -0.00024  -0.00093  -0.00018  -0.00132  -0.00036
    H88      X     0.00060   0.00014   0.00008   0.00003  -0.00814   0.00002
    H88      Y     0.00032   0.00008   0.00003  -0.00000  -0.00678  -0.00001
    H88      Z    -0.00070  -0.00022  -0.00015  -0.00005   0.01812   0.00004
    H89      X    -0.00088  -0.00006   0.00007   0.00029   0.00384  -0.00022
    H89      Y     0.00047   0.00000  -0.00006  -0.00016  -0.00141   0.00011
    H89      Z    -0.00099  -0.00004   0.00007   0.00029   0.00496  -0.00019
    H90      X    -0.00075   0.00085   0.00006  -0.00001  -0.00361   0.00008
    H90      Y    -0.00104   0.00108   0.00014   0.00002  -0.00457   0.00007
    H90      Z    -0.00030   0.00045   0.00005  -0.00000  -0.00185   0.00006
    H91      X     0.00166  -0.00005  -0.00000   0.00007  -0.01197  -0.00003
    H91      Y     0.00014  -0.00000  -0.00000   0.00002  -0.00324   0.00001
    H91      Z    -0.00022   0.00001   0.00001   0.00001  -0.00271  -0.00003
    H92      X    -0.00036   0.00007   0.00002   0.00001   0.00022  -0.00002
    H92      Y    -0.00206   0.00039   0.00011   0.00009   0.00227   0.00006
    H92      Z     0.00110  -0.00030  -0.00006  -0.00004  -0.00177  -0.00011
    H93      X     0.00048   0.00003  -0.00003  -0.00005  -0.00222   0.00004
    H93      Y     0.00125   0.00001  -0.00005  -0.00006  -0.00035   0.00009
    H93      Z     0.00381   0.00017  -0.00019  -0.00023  -0.00618   0.00036
    H94      X     0.00587  -0.00011  -0.00003  -0.00000   0.00126  -0.00148
    H94      Y     0.00353  -0.00007  -0.00002  -0.00002   0.00044  -0.00045
    H94      Z     0.00313  -0.00011  -0.00006  -0.00003   0.00141   0.00003
    H95      X     0.00719  -0.00025   0.00006   0.00010  -0.00194  -0.00011
    H95      Y     0.00261  -0.00009   0.00002   0.00004  -0.00081  -0.00004
    H95      Z     0.00065  -0.00002   0.00001   0.00002  -0.00021  -0.00002
    H96      X     0.01819  -0.00038  -0.00015  -0.00002  -0.00110  -0.00020
    H96      Y    -0.02148   0.00047   0.00017   0.00002   0.00136   0.00021
    H96      Z    -0.00731   0.00015   0.00007   0.00002   0.00028   0.00001
    H97      X    -0.00054   0.00004  -0.00001  -0.00004   0.00015   0.00005
    H97      Y    -0.00105   0.00006  -0.00000  -0.00004   0.00006   0.00008
    H97      Z    -0.00208   0.00024  -0.00013  -0.00024   0.00187   0.00050
    H98      X     0.00009   0.00008  -0.00533   0.00467   0.00006   0.00000
    H98      Y     0.00038   0.00035  -0.01935   0.01659   0.00021   0.00002
    H98      Z    -0.00012  -0.00009   0.00342  -0.00238  -0.00007  -0.00000
    H99      X    -0.00006   0.00026  -0.01345   0.01492  -0.00007   0.00004
    H99      Y    -0.00004   0.00004  -0.00315   0.00399  -0.00003   0.00001
    H99      Z    -0.00002   0.00005  -0.00213   0.00244  -0.00002   0.00001
    H100     X     0.00008   0.00004   0.00660  -0.00701   0.00000   0.00004
    H100     Y    -0.00013  -0.00008  -0.00790   0.00916  -0.00003  -0.00005
    H100     Z    -0.00008  -0.00006  -0.00451   0.00502  -0.00002  -0.00004
    H101     X    -0.00022   0.00003  -0.00339  -0.00163  -0.00004  -0.00001
    H101     Y    -0.00069   0.00008  -0.01216  -0.00600  -0.00018  -0.00000
    H101     Z     0.00078  -0.00008   0.01673   0.00893   0.00018   0.00001
    H102     X    -0.00007  -0.00011   0.01259   0.00862  -0.00021   0.00002
    H102     Y    -0.00004   0.00003  -0.00408  -0.00290   0.00003  -0.00001
    H102     Z    -0.00008  -0.00007   0.00821   0.00604  -0.00017   0.00001
    H103     X     0.00005   0.00004  -0.01012  -0.00702   0.00003   0.00014
    H103     Y    -0.00008  -0.00002   0.00403   0.00269  -0.00004  -0.00009
    H103     Z    -0.00011  -0.00003   0.00831   0.00616  -0.00007  -0.00015
    C104     X    -0.00001  -0.00008  -0.00000   0.00001   0.00000   0.00004
    C104     Y     0.00001  -0.00020  -0.00000   0.00001  -0.00001   0.00003
    C104     Z     0.00002  -0.00004  -0.00000   0.00001  -0.00001   0.00001
    C105     X    -0.00005  -0.00003   0.00000   0.00001   0.00002  -0.00001
    C105     Y     0.00007  -0.00015   0.00000   0.00001  -0.00002   0.00001
    C105     Z    -0.00005   0.00003  -0.00000   0.00001   0.00002  -0.00000
    C106     X     0.00005  -0.00044  -0.00000   0.00001  -0.00000  -0.00001
    C106     Y     0.00015  -0.00017  -0.00000   0.00001  -0.00002   0.00022
    C106     Z    -0.00003   0.00059   0.00000   0.00001  -0.00000   0.00007
    C107     X    -0.00005  -0.00171  -0.00000   0.00000  -0.00000   0.00002
    C107     Y     0.00002   0.00063   0.00000   0.00001  -0.00000  -0.00002
    C107     Z     0.00002   0.00132   0.00000   0.00002  -0.00002  -0.00004
    H108     X     0.00003   0.00036  -0.00001  -0.00011  -0.00006  -0.00006
    H108     Y     0.00006   0.00057  -0.00000  -0.00018  -0.00001  -0.00013
    H108     Z     0.00005   0.00071   0.00000  -0.00019  -0.00004  -0.00018
    H109     X     0.00073  -0.00033  -0.00003  -0.00006  -0.00022   0.00018
    H109     Y    -0.00036   0.00009   0.00002   0.00003   0.00016  -0.00010
    H109     Z     0.00023  -0.00012  -0.00001  -0.00001  -0.00003   0.00003
    H110     X    -0.00018   0.00053   0.00000   0.00000   0.00004  -0.00008
    H110     Y    -0.00052   0.00175  -0.00002   0.00000   0.00009  -0.00013
    H110     Z     0.00027  -0.00114   0.00001   0.00002  -0.00009   0.00009
    H111     X    -0.00005  -0.00074   0.00001  -0.00012   0.00001   0.00010
    H111     Y    -0.00010  -0.00088   0.00001  -0.00018   0.00007   0.00019
    H111     Z    -0.00006  -0.00114   0.00001  -0.00017   0.00004   0.00020
    H112     X     0.00026   0.01415   0.00001   0.00007  -0.00019  -0.00031
    H112     Y    -0.00002  -0.00259   0.00000  -0.00001   0.00003   0.00002
    H112     Z    -0.00037  -0.01847  -0.00002  -0.00007   0.00019   0.00038
    H113     X     0.00038   0.00774   0.00001  -0.00003   0.00021  -0.00002
    H113     Y    -0.00021  -0.00347  -0.00000   0.00003  -0.00003  -0.00006
    H113     Z     0.00013   0.00279   0.00000   0.00000   0.00006   0.00000
    H114     X    -0.00029   0.00045   0.00001  -0.00013   0.00006  -0.00046
    H114     Y    -0.00043   0.00062   0.00001  -0.00014   0.00007  -0.00070
    H114     Z    -0.00039   0.00104   0.00001  -0.00016   0.00007  -0.00052
    H115     X    -0.00027   0.00058   0.00000   0.00001   0.00003  -0.00043
    H115     Y    -0.00143   0.00326   0.00002  -0.00000   0.00022  -0.00182
    H115     Z     0.00081  -0.00158  -0.00001   0.00001  -0.00013   0.00122
    H116     X     0.00009   0.00449   0.00001   0.00003  -0.00008   0.00096
    H116     Y     0.00002  -0.00162  -0.00000  -0.00000   0.00002  -0.00025
    H116     Z    -0.00009  -0.00683  -0.00001  -0.00003   0.00009  -0.00160
    Br118    X     0.00000  -0.00001  -0.00000   0.00000  -0.00001  -0.00001
    Br118    Y     0.00000   0.00001   0.00000  -0.00000  -0.00002   0.00001
    Br118    Z    -0.00000   0.00000  -0.00000   0.00000   0.00001   0.00000
  
  Number of imaginary frequencies:   0
   
  Writing vibrational animation data to L_Ar_OtBu_Br_O_trans_PL344.vib
  Writing IR vibrational spectrum data to L_Ar_OtBu_Br_O_trans_PL344_vib.spm
  rotational symmetry number:  1

  rotational temperatures (K):      0.002590      0.002434      0.002271
   
  The Quasi-Harmonic approximation will be applied to compute
  vibrational constributions to thermodynamic properties.
  Frequencies will be adjusted to a minimum value of  100.00 cm^-1.

  vibrational temperatures:
       mode:      1        2        3        4        5        6
  temp. (K):   143.88   143.88   143.88   143.88   143.88   143.88
   
       mode:      7        8        9       10       11       12
  temp. (K):   143.88   143.88   143.88   143.88   143.88   143.88
   
       mode:     13       14       15       16       17       18
  temp. (K):   143.88   143.88   143.88   143.88   143.88   143.88
   
       mode:     19       20       21       22       23       24
  temp. (K):   143.88   148.54   154.54   158.70   164.26   169.39
   
       mode:     25       26       27       28       29       30
  temp. (K):   180.61   188.43   192.94   210.87   220.43   226.31
   
       mode:     31       32       33       34       35       36
  temp. (K):   228.36   234.20   245.91   254.03   264.15   272.10
   
       mode:     37       38       39       40       41       42
  temp. (K):   278.51   281.41   291.43   296.51   303.56   312.16
   
       mode:     43       44       45       46       47       48
  temp. (K):   318.11   332.37   351.20   354.92   357.25   366.43
   
       mode:     49       50       51       52       53       54
  temp. (K):   373.35   375.36   388.81   392.92   395.63   416.67
   
       mode:     55       56       57       58       59       60
  temp. (K):   418.57   441.38   442.86   445.14   448.86   452.00
   
       mode:     61       62       63       64       65       66
  temp. (K):   458.67   472.12   490.11   496.78   498.57   504.54
   
       mode:     67       68       69       70       71       72
  temp. (K):   514.03   524.30   532.92   541.29   555.11   556.73
   
       mode:     73       74       75       76       77       78
  temp. (K):   567.05   577.76   587.22   594.44   598.23   614.53
   
       mode:     79       80       81       82       83       84
  temp. (K):   622.80   628.69   644.18   649.84   653.37   661.43
   
       mode:     85       86       87       88       89       90
  temp. (K):   665.73   670.01   679.00   688.02   706.74   738.52
   
       mode:     91       92       93       94       95       96
  temp. (K):   754.40   757.27   761.83   786.98   802.09   825.80
   
       mode:     97       98       99      100      101      102
  temp. (K):   826.87   842.71   864.09   886.19   902.85   918.81
   
       mode:    103      104      105      106      107      108
  temp. (K):   946.94   969.16   971.81  1023.51  1042.80  1049.23
   
       mode:    109      110      111      112      113      114
  temp. (K):  1083.28  1107.15  1109.11  1143.15  1166.44  1167.65
   
       mode:    115      116      117      118      119      120
  temp. (K):  1172.39  1179.18  1191.34  1193.97  1202.54  1204.45
   
       mode:    121      122      123      124      125      126
  temp. (K):  1208.12  1218.96  1233.21  1260.85  1263.25  1279.98
   
       mode:    127      128      129      130      131      132
  temp. (K):  1297.69  1301.82  1307.49  1307.73  1316.14  1321.48
   
       mode:    133      134      135      136      137      138
  temp. (K):  1322.40  1324.22  1327.05  1334.93  1364.29  1368.47
   
       mode:    139      140      141      142      143      144
  temp. (K):  1369.93  1370.72  1375.16  1377.60  1379.99  1395.22
   
       mode:    145      146      147      148      149      150
  temp. (K):  1403.49  1404.00  1418.00  1423.23  1424.62  1445.83
   
       mode:    151      152      153      154      155      156
  temp. (K):  1480.08  1485.74  1489.04  1516.70  1518.66  1526.08
   
       mode:    157      158      159      160      161      162
  temp. (K):  1527.55  1534.75  1556.63  1558.36  1567.38  1568.12
   
       mode:    163      164      165      166      167      168
  temp. (K):  1588.75  1601.07  1607.34  1609.56  1610.39  1617.64
   
       mode:    169      170      171      172      173      174
  temp. (K):  1624.17  1629.64  1639.44  1645.30  1647.67  1657.15
   
       mode:    175      176      177      178      179      180
  temp. (K):  1664.41  1669.31  1694.54  1701.15  1704.98  1713.53
   
       mode:    181      182      183      184      185      186
  temp. (K):  1717.76  1723.71  1745.33  1749.62  1754.36  1756.68
   
       mode:    187      188      189      190      191      192
  temp. (K):  1764.56  1779.07  1784.08  1791.72  1799.75  1807.20
   
       mode:    193      194      195      196      197      198
  temp. (K):  1816.00  1822.06  1832.41  1865.01  1867.27  1871.29
   
       mode:    199      200      201      202      203      204
  temp. (K):  1878.76  1880.46  1886.55  1892.54  1895.33  1898.95
   
       mode:    205      206      207      208      209      210
  temp. (K):  1899.80  1907.23  1916.84  1920.78  1930.22  1937.39
   
       mode:    211      212      213      214      215      216
  temp. (K):  1940.36  1949.01  1952.56  1961.04  1967.21  1975.61
   
       mode:    217      218      219      220      221      222
  temp. (K):  1980.85  1997.92  2004.12  2009.74  2011.59  2014.12
   
       mode:    223      224      225      226      227      228
  temp. (K):  2016.02  2016.59  2018.67  2023.11  2027.04  2029.09
   
       mode:    229      230      231      232      233      234
  temp. (K):  2033.82  2044.12  2048.04  2048.32  2051.41  2054.14
   
       mode:    235      236      237      238      239      240
  temp. (K):  2063.09  2075.14  2080.97  2083.00  2114.62  2125.10
   
       mode:    241      242      243      244      245      246
  temp. (K):  2155.26  2157.43  2159.00  2162.48  2167.00  2168.98
   
       mode:    247      248      249      250      251      252
  temp. (K):  2170.81  2171.62  2172.22  2172.61  2175.60  2178.22
   
       mode:    253      254      255      256      257      258
  temp. (K):  2180.54  2183.43  2187.11  2188.27  2188.98  2189.18
   
       mode:    259      260      261      262      263      264
  temp. (K):  2189.88  2190.72  2193.61  2195.69  2196.85  2197.27
   
       mode:    265      266      267      268      269      270
  temp. (K):  2199.92  2201.82  2204.79  2206.11  2206.60  2207.35
   
       mode:    271      272      273      274      275      276
  temp. (K):  2209.63  2212.83  2219.98  2233.31  2238.14  2238.97
   
       mode:    277      278      279      280      281      282
  temp. (K):  2327.43  2360.22  2364.39  2368.18  2371.11  2406.25
   
       mode:    283      284      285      286      287      288
  temp. (K):  4318.17  4324.11  4331.87  4335.05  4336.24  4342.25
   
       mode:    289      290      291      292      293      294
  temp. (K):  4342.75  4347.50  4355.98  4361.39  4362.71  4364.80
   
       mode:    295      296      297      298      299      300
  temp. (K):  4365.92  4366.68  4371.83  4379.79  4392.48  4407.29
   
       mode:    301      302      303      304      305      306
  temp. (K):  4409.31  4412.42  4413.24  4414.60  4417.52  4419.27
   
       mode:    307      308      309      310      311      312
  temp. (K):  4426.61  4429.09  4438.27  4438.82  4439.70  4444.07
   
       mode:    313      314      315      316      317      318
  temp. (K):  4448.61  4452.47  4454.51  4456.57  4456.96  4467.69
   
       mode:    319      320      321      322      323      324
  temp. (K):  4470.76  4470.77  4479.03  4481.26  4482.06  4486.61
   
       mode:    325      326      327      328      329      330
  temp. (K):  4490.69  4499.37  4506.58  4512.37  4525.63  4529.23
   
       mode:    331      332      333      334      335      336
  temp. (K):  4532.08  4535.48  4537.85  4541.45  4541.57  4542.08
   
       mode:    337      338      339      340      341      342
  temp. (K):  4555.34  4560.40  4578.58  4595.72  4598.94  4604.53
   
       mode:    343      344      345      346      347      348
  temp. (K):  4620.03  4624.58  4629.22  4652.71  4679.25  4700.78
   
   
  Thermodynamic properties calculated assuming an ideal gas

  In the table below, the units for temperature
  are kelvins, the units for U, H, and G are
  kcal/mol and the units for Cv and S are cal/(mol K)

  The zero point energy (ZPE):    650.235 kcal/mol
  is not included in U, H, or G in the table below
  
 
  =============================================================================
  Thermodynamic properties for P = 1.00E+00 atm, calculated at   1 temperatures


  T =   298.15 K, P = 1.00E+00 atm
   
                  U         Cv          S          H          G        ln(Q)
              =========  =========  =========  =========  =========  =========
  trans.          0.889      2.981     46.232      1.481    -12.303   20.76477
  rot.            0.889      2.981     39.048      0.889    -10.753   18.14967
  vib.           32.895    213.422    200.435     32.895    -26.864   45.34195
  elec.           0.000      0.000      0.000      0.000      0.000    0.00000
  ----------------------------------------------------------------------------
  total          34.673    219.383    285.715     35.265    -49.921   84.25639
   
   Total internal energy, Utot(SCFE + ZPE + U):   -2559.836064 hartrees
   Total enthalpy, Htot (Utot + nRT), with n=1:   -2559.835120 hartrees
    Total Gibbs free energy, Gtot (Htot - T*S):   -2559.970873 hartrees
   
  end of program freq
   
 Time(freq)  user:       1.441  user+sys:       1.441  wallclock:       0.485
  
  start of program post
  
  Writing input files for PBF
  end of program post
   
 Time(post)  user:       0.386  user+sys:       0.386  wallclock:       0.098

 Total cpu seconds     user:  292822.630   user+sys:  292822.630
  
 Total elapsed time:    82752 seconds

Job L_Ar_OtBu_Br_O_trans_PL344 completed on bp1-compute072.data.bp.acrc.priv at Wed Jul 16 09:21:29 2025
