Job L_Ar_OtBu_PL344 started on bp1-compute052.data.bp.acrc.priv at Thu May  8 10:14:30 2025
jobid: bp1-compute052-2-681c75f0

  +--------------------------------------------------------------------+
  |  Jaguar version 12.5, release 138                                  |
  |                                                                    |
  |  Copyright Schrodinger, Inc.                                       |
  |  All Rights Reserved.                                              |
  |                                                                    |
  |  The following have contributed to Jaguar (listed alphabetically): |
  |  Ty Balduf, Mike Beachy, Chandler Bennett, Art Bochevarov,         |
  |  Dale Braden, Yixiang Cao, Alan Chien, Chris Cortis,               |
  |  Rich Friesner, Jim Furness, Bill Goddard, Hod Greeley,            |
  |  Tom Hughes, Leif Jacobson, Jean-Marc Langlois, Daniel Levine,     |
  |  Rob Murphy, Dean Philipp, Tom Pollard, Murco Ringnalda,           |
  |  Daniel Mainz, Pablo Videla, Mark Watson, Haoyu Yu.                |
  |                                                                    |
  |  Use of this program should be acknowledged in publications as:    |
  |                                                                    |
  |  Jaguar, version 12.5, Schrodinger, Inc., New York, NY, 2024.      |
  |                                                                    |
  |  A. D. Bochevarov, E. Harder, T. F. Hughes, J. R. Greenwood,       |
  |  D. A. Braden, D. M. Philipp, D. Rinaldo, M. D. Halls,             |
  |  J. Zhang, R. A. Friesner, "Jaguar: A High-Performance Quantum     |
  |  Chemistry Software Program with Strengths in Life and Materials   |
  |  Sciences", Int. J. Quantum Chem., 2013, 113(18), 2110-2142.       |
  +--------------------------------------------------------------------+
  
  start of program pre
  
  Job name: L_Ar_OtBu_PL344
  Executables used: /software/local/apps/schrodinger2024-3/jaguar-v12.5/bin/Linux-x86_64
  Temporary files : /tmp/ar21627/L_Ar_OtBu_PL344#bp1-compute052-2-681c75f0
  Basis file : using default basis file from /software/local/apps/schrodinger2024-3
  Maestro file (input):  L_Ar_OtBu_PL344.mae
  Maestro file (output): L_Ar_OtBu_PL344.01.mae
  
 Contents of input file: &gen and (if present) &atomic sections only
 ----------------Contents start----------------
&gen
dftname=b3pw91-d3
basis=6-31G*
numd=5
ip11=2
iaccg=3
isolv=2
igeopt=1
solvent=benzene
ifreq=1
&
&atomic
atom basis
Pd2 lacv3p*
&
 -----------------Contents end-----------------
 
  PS calculation requested. Using PS version of 6-31g*
  basis set:               non_standard                    
  net molecular charge:    0
  multiplicity:            1
  
  Using up to  16 threads per process
  
  This run will use ECP on 1 atom
  number of basis functions....          867
  
 Input geometry:
                                   angstroms
  atom               x                 y                 z
  P1           -0.1411914086      0.1797578883     -0.0460340114 
  Pd2          -0.1335893535     -0.0214495707      2.2510275359 
  O3           -0.1968795260      0.0797653209      4.2574796036 
  C73           3.3314965568      3.2193404122      2.9008551201 
  C74           3.5490105199      1.8885617266      3.2264648174 
  C75           2.5183532041      0.9695096710      3.0164580496 
  C76           1.2897479435      1.3708720532      2.4783372520 
  C77           1.0847093710      2.7288331096      2.2175996678 
  C78           2.1093068573      3.6585254461      2.4122972780 
  F79           4.3279699436      4.1136697788      3.0841631898 
  H80           4.5061398582      1.5825550057      3.6409933741 
  H82           0.1177481252      3.0828266134      1.8786435090 
  H83           1.9617169699      4.7154636906      2.2048449339 
  H14           2.6934852098     -0.0651251747      3.2910662408 
  C3            1.4970520520      0.2586105696     -0.9488542090 
  C4            2.3921555230     -0.9084935142     -0.5115741062 
  C5            3.7625686533     -0.8661674007     -1.1948089917 
  C6            4.4434780847      0.4883444869     -0.9889713231 
  C7            3.5571389521      1.6144978847     -1.5242024071 
  C8            2.1916306794      1.6263566579     -0.8265754583 
  C9           -1.1040295679      1.6045809407     -0.8041251744 
  C10          -2.5910931935      1.3146927395     -1.0456201998 
  C11          -3.2578020618      2.4976729377     -1.7582851998 
  C12          -3.0983958630      3.7947141332     -0.9604371239 
  C13          -1.6232765685      4.0736373740     -0.6632540389 
  C14          -0.9622326043      2.8811164282      0.0343108004 
  C15          -0.9416064208     -1.3362275174     -0.7163094821 
  C16          -1.4412079649     -2.2845171173      0.1860918582 
  C17          -2.0776729145     -3.4479389362     -0.3158046192 
  C18          -2.1825418911     -3.6562188901     -1.6876384079 
  C19          -1.6926900767     -2.7047838541     -2.5826974233 
  C20          -1.0923542968     -1.5436501962     -2.1098300879 
  C21          -1.3791360685     -2.1855123190      1.6893937246 
  C22          -2.5261159117     -1.7398013722      2.3996132841 
  C23          -2.6708443595     -2.0671571273      3.7503167160 
  C24          -1.7190225543     -2.8178954716      4.4310020088 
  C25          -0.5935314930     -3.2546674692      3.7223434151 
  C26          -0.3979154850     -2.9589504860      2.3817737176 
  C27           0.8309211201     -3.4837323066      1.6622821883 
  C28           0.7259018296     -4.9951856164      1.4183593271 
  C29           2.1236026676     -3.1323858604      2.4085937126 
  C30          -4.9205001473     -1.8008203806      1.6434287812 
  C31          -3.6311473215     -0.9714331387      1.7004847335 
  C32          -3.8620064492      0.3959751473      2.3551684151 
  C33          -2.7566059155     -2.2410423047      6.6916722257 
  C34          -1.8307501915     -3.1669690630      5.9033934048 
  C35          -2.2454209411     -4.6379171744      6.0713538863 
  O36          -0.6544608919     -0.5417697796     -2.9242817833 
  C37          -0.8093260190     -0.6802979037     -4.3267570210 
  O38          -2.5582869167     -4.3095941100      0.6208544941 
  C39          -3.1768638122     -5.5064602465      0.1852870059 
  H40           1.2364955865      0.1114455888     -2.0031797612 
  H41           1.8922419860     -1.8571128069     -0.7432198973 
  H42           2.5270537819     -0.8800434196      0.5744655574 
  H43           4.3891810712     -1.6811559050     -0.8088135119 
  H44           3.6384973685     -1.0476079713     -2.2737145673 
  H45           5.4253594165      0.5038046716     -1.4799788580 
  H46           4.6182532482      0.6506172331      0.0847225765 
  H47           4.0432374306      2.5888595920     -1.3851416931 
  H48           3.4175409650      1.4810832501     -2.6085480701 
  H49           1.5638697062      2.4056671857     -1.2756866270 
  H50           2.3327694215      1.8924935180      0.2245922362 
  H51          -0.6289938568      1.7575407775     -1.7834419928 
  H52          -3.0862021318      1.1563341209     -0.0806086016 
  H53          -2.7260877777      0.4014028216     -1.6328558815 
  H54          -2.8018943553      2.6203594976     -2.7529594278 
  H55          -4.3205518241      2.2769205781     -1.9248714496 
  H56          -3.6434433560      3.6994231413     -0.0090617091 
  H57          -3.5501693939      4.6372646482     -1.5001578347 
  H58          -1.0911146644      4.2814607209     -1.6046359628 
  H59          -1.5178965769      4.9707129242     -0.0390932722 
  H60          -1.4460664701      2.7093109863      1.0064327799 
  H61           0.0874645843      3.1023504129      0.2465071540 
  H62          -2.6545114538     -4.5498265084     -2.0825746046 
  H63          -1.8025042287     -2.8832295331     -3.6473870731 
  H64          -3.5383969332     -1.6918382885      4.2834371458 
  H65           0.1684834426     -3.8182670723      4.2562381085 
  H66           0.8697700614     -2.9916664851      0.6857163172 
  H67           0.6836692530     -5.5382295480      2.3709630335 
  H68          -0.1789190122     -5.2393891554      0.8535337168 
  H69           1.5978521104     -5.3576790703      0.8590151652 
  H70           2.2319408385     -3.7143380052      3.3320394235 
  H71           2.9989359616     -3.3405324958      1.7808949111 
  H72           2.1321477321     -2.0736635971      2.6864191129 
  H73          -5.3199607417     -1.9817765441      2.6490427426 
  H74          -5.6908858592     -1.2765498312      1.0638039686 
  H75          -4.7311066693     -2.7733545414      1.1763669392 
  H76          -3.3108607356     -0.8001481806      0.6675658076 
  H77          -4.2027335075      0.2944385594      3.3920176941 
  H78          -4.6237202094      0.9647427887      1.8067159342 
  H79          -2.9330213377      0.9792923014      2.3749277191 
  H92          -3.8072712725     -2.3825698713      6.4066650320 
  H81          -2.4879128486     -1.1917541559      6.5271226006 
  H94          -2.6780469439     -2.4552027200      7.7641225806 
  H95          -0.8201929788     -3.0507621051      6.3204844435 
  H84          -3.2509911104     -4.8020349077      5.6629310726 
  H85          -1.5570289336     -5.3113672437      5.5468621664 
  H86          -2.2568841477     -4.9191025230      7.1319412151 
  H87          -0.4008130684      0.2336482064     -4.7631505636 
  H88          -1.8674276779     -0.7744228596     -4.6063665075 
  H89          -0.2514415381     -1.5447679911     -4.7114455962 
  H90          -3.4713039344     -6.0375207188      1.0927568606 
  H91          -4.0705241088     -5.3029020708     -0.4212551134 
  H104         -2.4822031961     -6.1335323019     -0.3913929641 
  C105         -0.6422116137      1.4496496633      4.6759246062 
  C106         -0.6907025917      1.5271973912      6.2132062898 
  C107          0.3502114565      2.4986216443      4.1408038414 
  C108         -2.0440008149      1.7315424671      4.1039775085 
  H109         -1.0143105754      2.5226466799      6.5172763251 
  H110         -1.3933861409      0.7854892395      6.5929494232 
  H111          0.3012186486      1.3284219038      6.6190148147 
  H112         -2.3676087986      2.7269917559      4.4080475437 
  H113         -2.0106138649      1.6775035640      3.0158299502 
  H114         -2.7473647171      0.9899370472      4.4826602546 
  H115          0.0266034728      3.4940709330      4.4448738767 
  H116          1.3426560026      2.3003345278      4.5455704931 
  H117          0.3848020654      2.4449683802      3.0526747972 
   
  principal moments of inertia:
        amu*angstrom^2:              7668.43421              8845.49232             10891.13236
                g*cm^2:          1.27337330E-36          1.46882837E-36          1.80851485E-36
   
  rotational constants:
               cm^(-1):      0.00219831      0.00190579      0.00154783
                   GHz:      0.06590381      0.05713407      0.04640280
   
  Molecular weight:     810.38 amu
   
  Stoichiometry: PdC45PH66O3F
  Molecular Point Group: C1      
  Point Group used: C1
  
 
Number of optimization coordinates:   397
Number of independent coordinates:    397
Number of non-redundant coordinates:  345
Number of frozen coordinates:           0
Number of harmonic constraints:         0
 
Number of geometric degrees of freedom:   345
Maximum geometric degrees of freedom:     345
 " " " " " excluding dummy atoms:         345
 
 
  bond lengths (angstroms):
 
 P1      -Pd2     :   2.305869      P1      -C3      :   1.872203
 P1      -C9      :   1.879330      P1      -C15     :   1.840691
 Pd2     -O3      :   2.010000      Pd2     -C76     :   2.004026
 O3      -C105    :   1.500000      C73     -C74     :   1.387194
 C73     -C78     :   1.387559      C73     -F79     :   1.351439
 C74     -C75     :   1.396787      C74     -H80     :   1.087001
 C75     -C76     :   1.400049      C75     -H14     :   1.084689
 C76     -C77     :   1.397885      C77     -C78     :   1.397152
 C77     -H82     :   1.084074      C77     -H117    :   1.125966
 C78     -H83     :   1.087170      C3      -C4      :   1.534456
 C3      -C8      :   1.538870      C3      -H40     :   1.095970
 C4      -C5      :   1.531873      C4      -H41     :   1.097020
 C4      -H42     :   1.094755      C5      -C6      :   1.529938
 C5      -H43     :   1.098108      C5      -H44     :   1.101068
 C6      -C7      :   1.529801      C6      -H45     :   1.097915
 C6      -H46     :   1.099862      C7      -C8      :   1.533440
 C7      -H47     :   1.097730      C7      -H48     :   1.101405
 C8      -H49     :   1.096864      C8      -H50     :   1.093482
 C9      -C10     :   1.534182      C9      -C14     :   1.533827
 C9      -H51     :   1.099144      C10     -C11     :   1.533569
 C10     -H52     :   1.096110      C10     -H53     :   1.094152
 C11     -C12     :   1.531107      C11     -H54     :   1.101036
 C11     -H55     :   1.098144      C12     -C13     :   1.530390
 C12     -H56     :   1.100578      C12     -H57     :   1.097857
 C13     -C14     :   1.531562      C13     -H58     :   1.101175
 C13     -H59     :   1.097919      C14     -H60     :   1.099379
 C14     -H61     :   1.093543      C15     -C16     :   1.401136
 C15     -C20     :   1.416915      C16     -C17     :   1.417934
 C16     -C21     :   1.507837      C17     -C18     :   1.391512
 C17     -O38     :   1.360430      C18     -C19     :   1.395104
 C18     -H62     :   1.085018      C19     -C20     :   1.390050
 C19     -H63     :   1.085111      C20     -O36     :   1.363395
 C21     -C22     :   1.420786      C21     -C26     :   1.428422
 C22     -C23     :   1.397322      C22     -C31     :   1.516662
 C23     -C24     :   1.390290      C23     -H64     :   1.085232
 C24     -C25     :   1.399892      C24     -C34     :   1.517324
 C25     -C26     :   1.386666      C25     -H65     :   1.087821
 C26     -C27     :   1.517598      C27     -C28     :   1.534607
 C27     -C29     :   1.533444      C27     -H66     :   1.094221
 C28     -H67     :   1.097330      C28     -H68     :   1.094241
 C28     -H69     :   1.097527      C29     -H70     :   1.096885
 C29     -H71     :   1.097059      C29     -H72     :   1.094602
 C30     -C31     :   1.534135      C30     -H73     :   1.097075
 C30     -H74     :   1.097415      C30     -H75     :   1.095372
 C31     -C32     :   1.533529      C31     -H76     :   1.094917
 C32     -H77     :   1.096112      C32     -H78     :   1.097499
 C32     -H79     :   1.097116      C33     -C34     :   1.528376
 C33     -H92     :   1.097796      C33     -H81     :   1.095572
 C33     -H94     :   1.096442      C34     -C35     :   1.537482
 C34     -H95     :   1.099407      C35     -H84     :   1.097686
 C35     -H85     :   1.096590      C35     -H86     :   1.097289
 O36     -C37     :   1.417783      C37     -H87     :   1.092071
 C37     -H88     :   1.098463      C37     -H89     :   1.098421
 O38     -C39     :   1.415925      C39     -H90     :   1.091889
 C39     -H91     :   1.099071      C39     -H104    :   1.099242
 C105    -C106    :   1.540000      C105    -C107    :   1.540000
 C105    -C108    :   1.540000      C106    -H109    :   1.090000
 C106    -H110    :   1.090000      C106    -H111    :   1.090000
 C107    -H115    :   1.090000      C107    -H116    :   1.090000
 C107    -H117    :   1.090000      C108    -H112    :   1.090000
 C108    -H113    :   1.090000      C108    -H114    :   1.090000
 
  bond angles:
 
 C3      -P1      -Pd2     : 118.761961  C9      -P1      -Pd2     : 118.014028
 C9      -P1      -C3      : 102.817982  C15     -P1      -Pd2     : 106.996901
 C15     -P1      -C3      : 103.862572  C15     -P1      -C9      : 104.758136
 O3      -Pd2     -P1      : 171.859590  C76     -Pd2     -P1      :  93.136257
 C76     -Pd2     -O3      :  82.770282  C105    -O3      -Pd2     : 109.500000
 C78     -C73     -C74     : 121.628165  F79     -C73     -C74     : 119.169435
 F79     -C73     -C78     : 119.193885  C75     -C74     -C73     : 118.700153
 H80     -C74     -C73     : 119.844386  H80     -C74     -C75     : 121.454691
 C76     -C75     -C74     : 121.109923  H14     -C75     -C74     : 118.061089
 H14     -C75     -C76     : 120.826654  C75     -C76     -Pd2     : 117.884471
 C77     -C76     -Pd2     : 123.338673  C77     -C76     -C75     : 118.613433
 C78     -C77     -C76     : 120.854291  H82     -C77     -C76     : 120.422056
 H82     -C77     -C78     : 118.712092  H117    -C77     -C76     :  73.018271
 H117    -C77     -C78     : 121.349601  H117    -C77     -H82     :  76.099354
 C77     -C78     -C73     : 118.972950  H83     -C78     -C73     : 119.635370
 H83     -C78     -C77     : 121.383802  C4      -C3      -P1      : 109.936823
 C8      -C3      -P1      : 113.207934  C8      -C3      -C4      : 112.959612
 H40     -C3      -P1      : 104.490136  H40     -C3      -C4      : 108.101209
 H40     -C3      -C8      : 107.643468  C5      -C4      -C3      : 111.946130
 H41     -C4      -C3      : 109.372314  H41     -C4      -C5      : 109.717541
 H42     -C4      -C3      : 109.561537  H42     -C4      -C5      : 109.360413
 H42     -C4      -H41     : 106.744411  C6      -C5      -C4      : 111.260177
 H43     -C5      -C4      : 109.463141  H43     -C5      -C6      : 110.843783
 H44     -C5      -C4      : 109.370555  H44     -C5      -C6      : 109.139741
 H44     -C5      -H43     : 106.644592  C7      -C6      -C5      : 110.292114
 H45     -C6      -C5      : 110.506821  H45     -C6      -C7      : 110.567801
 H46     -C6      -C5      : 109.431719  H46     -C6      -C7      : 108.965754
 H46     -C6      -H45     : 107.000960  C8      -C7      -C6      : 111.251014
 H47     -C7      -C6      : 110.642017  H47     -C7      -C8      : 109.258485
 H48     -C7      -C6      : 109.190782  H48     -C7      -C8      : 109.631400
 H48     -C7      -H47     : 106.759907  C7      -C8      -C3      : 111.032885
 H49     -C8      -C3      : 109.915012  H49     -C8      -C7      : 109.199903
 H50     -C8      -C3      : 110.546241  H50     -C8      -C7      : 108.922102
 H50     -C8      -H49     : 107.130852  C10     -C9      -P1      : 114.635037
 C14     -C9      -P1      : 111.291533  C14     -C9      -C10     : 109.445456
 H51     -C9      -P1      : 104.092719  H51     -C9      -C10     : 107.755743
 H51     -C9      -C14     : 109.345532  C11     -C10     -C9      : 110.413003
 H52     -C10     -C9      : 109.058869  H52     -C10     -C11     : 108.917261
 H53     -C10     -C9      : 111.210219  H53     -C10     -C11     : 109.927499
 H53     -C10     -H52     : 107.228960  C12     -C11     -C10     : 111.471993
 H54     -C11     -C10     : 109.011514  H54     -C11     -C12     : 109.466183
 H55     -C11     -C10     : 109.643060  H55     -C11     -C12     : 110.493245
 H55     -C11     -H54     : 106.623512  C13     -C12     -C11     : 110.850803
 H56     -C12     -C11     : 108.998454  H56     -C12     -C13     : 108.981919
 H57     -C12     -C11     : 110.555179  H57     -C12     -C13     : 110.624140
 H57     -C12     -H56     : 106.715613  C14     -C13     -C12     : 111.257545
 H58     -C13     -C12     : 109.524018  H58     -C13     -C14     : 109.131185
 H59     -C13     -C12     : 110.599034  H59     -C13     -C14     : 109.623720
 H59     -C13     -H58     : 106.583367  C13     -C14     -C9      : 111.048015
 H60     -C14     -C9      : 108.216576  H60     -C14     -C13     : 109.540126
 H61     -C14     -C9      : 111.295850  H61     -C14     -C13     : 110.191807
 H61     -C14     -H60     : 106.408526  C16     -C15     -P1      : 118.550655
 C20     -C15     -P1      : 121.665631  C20     -C15     -C16     : 119.762295
 C17     -C16     -C15     : 119.169853  C21     -C16     -C15     : 125.661490
 C21     -C16     -C17     : 115.166566  C18     -C17     -C16     : 120.371046
 O38     -C17     -C16     : 115.756970  O38     -C17     -C18     : 123.871983
 C19     -C18     -C17     : 120.262262  H62     -C18     -C17     : 120.990687
 H62     -C18     -C19     : 118.742864  C20     -C19     -C18     : 120.202959
 H63     -C19     -C18     : 118.803836  H63     -C19     -C20     : 120.987578
 C19     -C20     -C15     : 120.185053  O36     -C20     -C15     : 116.472137
 O36     -C20     -C19     : 123.320679  C22     -C21     -C16     : 119.060951
 C26     -C21     -C16     : 118.423461  C26     -C21     -C22     : 118.823122
 C23     -C22     -C21     : 119.559189  C31     -C22     -C21     : 121.110275
 C31     -C22     -C23     : 119.262321  C24     -C23     -C22     : 121.928464
 H64     -C23     -C22     : 118.466124  H64     -C23     -C24     : 119.572982
 C25     -C24     -C23     : 118.102860  C34     -C24     -C23     : 123.292813
 C34     -C24     -C25     : 118.597588  C26     -C25     -C24     : 122.430498
 H65     -C25     -C24     : 118.449661  H65     -C25     -C26     : 119.087698
 C25     -C26     -C21     : 119.154773  C27     -C26     -C21     : 120.907540
 C27     -C26     -C25     : 119.922107  C28     -C27     -C26     : 111.132430
 C29     -C27     -C26     : 111.877453  C29     -C27     -C28     : 111.144006
 H66     -C27     -C26     : 107.239508  H66     -C27     -C28     : 107.666900
 H66     -C27     -C29     : 107.541370  H67     -C28     -C27     : 110.613371
 H68     -C28     -C27     : 111.004292  H68     -C28     -H67     : 107.808364
 H69     -C28     -C27     : 110.605819  H69     -C28     -H67     : 108.032204
 H69     -C28     -H68     : 108.672886  H70     -C29     -C27     : 111.804139
 H71     -C29     -C27     : 110.528735  H71     -C29     -H70     : 107.591313
 H72     -C29     -C27     : 110.592662  H72     -C29     -H70     : 107.379957
 H72     -C29     -H71     : 108.814611  H73     -C30     -C31     : 111.167726
 H74     -C30     -C31     : 110.570647  H74     -C30     -H73     : 107.898465
 H75     -C30     -C31     : 110.520234  H75     -C30     -H73     : 107.900057
 H75     -C30     -H74     : 108.682637  C30     -C31     -C22     : 110.830026
 C32     -C31     -C22     : 111.384769  C32     -C31     -C30     : 111.802904
 H76     -C31     -C22     : 107.516943  H76     -C31     -C30     : 107.177652
 H76     -C31     -C32     : 107.895737  H77     -C32     -C31     : 111.594081
 H78     -C32     -C31     : 110.685750  H78     -C32     -H77     : 107.756530
 H79     -C32     -C31     : 110.750874  H79     -C32     -H77     : 107.183238
 H79     -C32     -H78     : 108.732206  H92     -C33     -C34     : 111.577934
 H81     -C33     -C34     : 110.744175  H81     -C33     -H92     : 108.614814
 H94     -C33     -C34     : 110.044017  H94     -C33     -H92     : 107.297223
 H94     -C33     -H81     : 108.445821  C33     -C34     -C24     : 113.936272
 C35     -C34     -C24     : 110.241122  C35     -C34     -C33     : 111.092855
 H95     -C34     -C24     : 106.030131  H95     -C34     -C33     : 107.284504
 H95     -C34     -C35     : 107.914168  H84     -C35     -C34     : 110.454875
 H85     -C35     -C34     : 111.468724  H85     -C35     -H84     : 107.775898
 H86     -C35     -C34     : 110.706010  H86     -C35     -H84     : 108.164591
 H86     -C35     -H85     : 108.148435  C37     -O36     -C20     : 118.949471
 H87     -C37     -O36     : 105.822398  H88     -C37     -O36     : 111.431409
 H88     -C37     -H87     : 109.288296  H89     -C37     -O36     : 111.583533
 H89     -C37     -H87     : 109.190243  H89     -C37     -H88     : 109.429734
 C39     -O38     -C17     : 118.549730  H90     -C39     -O38     : 105.858682
 H91     -C39     -O38     : 111.618974  H91     -C39     -H90     : 109.236905
 H104    -C39     -O38     : 111.561914  H104    -C39     -H90     : 109.206078
 H104    -C39     -H91     : 109.267149  C106    -C105    -O3      : 109.500000
 C107    -C105    -O3      : 109.500000  C107    -C105    -C106    : 109.442426
 C108    -C105    -O3      : 109.500000  C108    -C105    -C106    : 109.442426
 C108    -C105    -C107    : 109.442426  H109    -C106    -C105    : 109.500000
 H110    -C106    -C105    : 109.500000  H110    -C106    -H109    : 109.442426
 H111    -C106    -C105    : 109.500000  H111    -C106    -H109    : 109.442426
 H111    -C106    -H110    : 109.442426  H115    -C107    -C105    : 109.500000
 H116    -C107    -C105    : 109.500000  H116    -C107    -H115    : 109.442426
 H117    -C107    -C105    : 109.500000  H117    -C107    -H115    : 109.442426
 H117    -C107    -H116    : 109.442426  H112    -C108    -C105    : 109.500000
 H113    -C108    -C105    : 109.500000  H113    -C108    -H112    : 109.442426
 H114    -C108    -C105    : 109.500000  H114    -C108    -H112    : 109.442426
 H114    -C108    -H113    : 109.442426  C107    -H117    -C77     : 138.391176
 
  torsional angles:
 
 P1      -Pd2     -O3      -C105    :   3.600000
 P1      -Pd2     -C76     -C75     :-115.878604
 P1      -Pd2     -C76     -C77     :  68.839260
 P1      -C3      -C4      -C5      :-178.406792
 P1      -C3      -C4      -H41     :  59.773509
 P1      -C3      -C4      -H42     : -56.908421
 P1      -C3      -C8      -C7      : 177.214453
 P1      -C3      -C8      -H49     : -61.850932
 P1      -C3      -C8      -H50     :  56.206798
 P1      -C9      -C10     -C11     :-175.821746
 P1      -C9      -C10     -H52     :  64.537592
 P1      -C9      -C10     -H53     : -53.510440
 P1      -C9      -C14     -C13     : 173.968270
 P1      -C9      -C14     -H60     : -65.771071
 P1      -C9      -C14     -H61     :  50.810295
 P1      -C15     -C16     -C17     : 179.091015
 P1      -C15     -C16     -C21     :  -0.356020
 P1      -C15     -C20     -C19     : 179.515004
 P1      -C15     -C20     -O36     :  -2.139828
 Pd2     -P1      -C3      -C4      :  51.211446
 Pd2     -P1      -C3      -C8      : -76.161925
 Pd2     -P1      -C3      -H40     : 167.003231
 Pd2     -P1      -C9      -C10     : -86.265574
 Pd2     -P1      -C9      -C14     :  38.609344
 Pd2     -P1      -C9      -H51     : 156.280755
 Pd2     -P1      -C15     -C16     :   2.572055
 Pd2     -P1      -C15     -C20     :-179.116075
 Pd2     -O3      -C105    -C106    : 179.999999
 Pd2     -O3      -C105    -C107    : -60.000000
 Pd2     -O3      -C105    -C108    :  60.000000
 Pd2     -C76     -C75     -C74     :-178.836257
 Pd2     -C76     -C75     -H14     :   0.597212
 Pd2     -C76     -C77     -C78     : 179.074018
 Pd2     -C76     -C77     -H82     :   0.326792
 Pd2     -C76     -C77     -H117    :  62.252094
 O3      -Pd2     -P1      -C3      : 104.214645
 O3      -Pd2     -P1      -C9      : -21.143679
 O3      -Pd2     -P1      -C15     :-138.811929
 O3      -Pd2     -C76     -C75     :  71.188185
 O3      -Pd2     -C76     -C77     :-104.093951
 O3      -C105    -C106    -H109    : 180.000000
 O3      -C105    -C106    -H110    : -60.000000
 O3      -C105    -C106    -H111    :  60.000000
 O3      -C105    -C107    -H115    : 179.999999
 O3      -C105    -C107    -H116    : -60.000000
 O3      -C105    -C107    -H117    :  60.000000
 O3      -C105    -C108    -H112    : 180.000000
 O3      -C105    -C108    -H113    : -60.000000
 O3      -C105    -C108    -H114    :  60.000000
 C73     -C74     -C75     -C76     :   0.513652
 C73     -C74     -C75     -H14     :-178.935049
 C73     -C78     -C77     -C76     :  -1.511689
 C73     -C78     -C77     -H82     : 177.256575
 C73     -C78     -C77     -H117    :  86.514717
 C74     -C73     -C78     -C77     :  -1.419231
 C74     -C73     -C78     -H83     : 177.574106
 C74     -C75     -C76     -C77     :  -3.325591
 C75     -C74     -C73     -C78     :   1.908603
 C75     -C74     -C73     -F79     :-179.161754
 C75     -C76     -C77     -C78     :   3.824319
 C75     -C76     -C77     -H82     :-174.922908
 C75     -C76     -C77     -H117    :-112.997606
 C76     -Pd2     -P1      -C3      :  44.681203
 C76     -Pd2     -P1      -C9      : -80.677122
 C76     -Pd2     -P1      -C15     : 161.654629
 C76     -Pd2     -O3      -C105    :  63.773046
 C76     -C75     -C74     -H80     :-179.806105
 C76     -C77     -C78     -H83     : 179.513243
 C76     -C77     -H117    -C107    :  97.659349
 C77     -C76     -C75     -H14     : 176.107877
 C77     -C78     -C73     -F79     : 179.651380
 C77     -H117    -C107    -C105    :-158.013620
 C77     -H117    -C107    -H115    :  81.951148
 C77     -H117    -C107    -H116    : -37.978388
 C78     -C73     -C74     -H80     :-177.776922
 C78     -C77     -H117    -C107    : -18.563842
 F79     -C73     -C74     -H80     :   1.152722
 F79     -C73     -C78     -H83     :  -1.355282
 H80     -C74     -C75     -H14     :   0.745194
 H82     -C77     -C78     -H83     :  -1.718493
 H82     -C77     -H117    -C107    :-133.951280
 H83     -C78     -C77     -H117    : -92.460351
 C3      -P1      -C9      -C10     : 140.890037
 C3      -P1      -C9      -C14     : -94.235045
 C3      -P1      -C9      -H51     :  23.436367
 C3      -P1      -C15     -C16     : 128.990503
 C3      -P1      -C15     -C20     : -52.697627
 C3      -C4      -C5      -C6      :  53.765524
 C3      -C4      -C5      -H43     : 176.615811
 C3      -C4      -C5      -H44     : -66.879655
 C3      -C8      -C7      -C6      : -55.312675
 C3      -C8      -C7      -H47     :-177.761358
 C3      -C8      -C7      -H48     :  65.563531
 C4      -C3      -P1      -C9      :-176.383355
 C4      -C3      -P1      -C15     : -67.403468
 C4      -C3      -C8      -C7      :  51.441972
 C4      -C3      -C8      -H49     : 172.376586
 C4      -C3      -C8      -H50     : -69.565683
 C4      -C5      -C6      -C7      : -57.653256
 C4      -C5      -C6      -H45     : 179.785579
 C4      -C5      -C6      -H46     :  62.206554
 C5      -C4      -C3      -C8      : -50.895208
 C5      -C4      -C3      -H40     :  68.103290
 C5      -C6      -C7      -C8      :  58.713612
 C5      -C6      -C7      -H47     :-179.639944
 C5      -C6      -C7      -H48     : -62.420939
 C6      -C5      -C4      -H41     : 175.386946
 C6      -C5      -C4      -H42     : -67.848565
 C6      -C7      -C8      -H49     :-176.667678
 C6      -C7      -C8      -H50     :  66.646390
 C7      -C6      -C5      -H43     :-179.706674
 C7      -C6      -C5      -H44     :  63.127644
 C7      -C8      -C3      -H40     : -67.821379
 C8      -C3      -P1      -C9      :  56.243274
 C8      -C3      -P1      -C15     : 165.223161
 C8      -C3      -C4      -H41     :-172.714906
 C8      -C3      -C4      -H42     :  70.603164
 C8      -C7      -C6      -H45     :-178.761023
 C8      -C7      -C6      -H46     : -61.427228
 C9      -P1      -C3      -H40     : -60.591571
 C9      -P1      -C15     -C16     :-123.472847
 C9      -P1      -C15     -C20     :  54.839023
 C9      -C10     -C11     -C12     : -57.338796
 C9      -C10     -C11     -H54     :  63.611399
 C9      -C10     -C11     -H55     : 179.987742
 C9      -C14     -C13     -C12     :  56.729510
 C9      -C14     -C13     -H58     : -64.235548
 C9      -C14     -C13     -H59     : 179.379063
 C10     -C9      -P1      -C15     :  32.587363
 C10     -C9      -C14     -C13     : -58.295890
 C10     -C9      -C14     -H60     :  61.964769
 C10     -C9      -C14     -H61     : 178.546135
 C10     -C11     -C12     -C13     :  54.986356
 C10     -C11     -C12     -H56     : -64.964195
 C10     -C11     -C12     -H57     : 178.036445
 C11     -C10     -C9      -C14     :  58.337330
 C11     -C10     -C9      -H51     : -60.473854
 C11     -C12     -C13     -C14     : -54.449507
 C11     -C12     -C13     -H58     :  66.284877
 C11     -C12     -C13     -H59     :-176.535598
 C12     -C11     -C10     -H52     :  62.387350
 C12     -C11     -C10     -H53     : 179.599711
 C12     -C13     -C14     -H60     : -62.742977
 C12     -C13     -C14     -H61     :-179.480129
 C13     -C12     -C11     -H54     : -65.697835
 C13     -C12     -C11     -H55     : 177.170952
 C13     -C14     -C9      -H51     :  59.525106
 C14     -C9      -P1      -C15     : 157.462281
 C14     -C9      -C10     -H52     : -61.303333
 C14     -C9      -C10     -H53     :-179.351365
 C14     -C13     -C12     -H56     :  65.510918
 C14     -C13     -C12     -H57     :-177.459749
 C15     -P1      -C3      -H40     :  48.388317
 C15     -P1      -C9      -H51     : -84.866307
 C15     -C16     -C17     -C18     :   1.167627
 C15     -C16     -C17     -O38     :-178.833425
 C15     -C16     -C21     -C22     :  99.261478
 C15     -C16     -C21     -C26     :-102.627943
 C15     -C20     -C19     -C18     :   1.720990
 C15     -C20     -C19     -H63     :-179.152284
 C15     -C20     -O36     -C37     :-178.493471
 C16     -C15     -C20     -C19     :  -2.193167
 C16     -C15     -C20     -O36     : 176.152001
 C16     -C17     -C18     -C19     :  -1.661755
 C16     -C17     -C18     -H62     : 179.091997
 C16     -C17     -O38     -C39     :-178.516366
 C16     -C21     -C22     -C23     : 157.896945
 C16     -C21     -C22     -C31     : -19.077202
 C16     -C21     -C26     -C25     :-158.009388
 C16     -C21     -C26     -C27     :  20.553591
 C17     -C16     -C15     -C20     :   0.746142
 C17     -C16     -C21     -C22     : -80.205045
 C17     -C16     -C21     -C26     :  77.905534
 C17     -C18     -C19     -C20     :   0.207075
 C17     -C18     -C19     -H63     :-178.938582
 C17     -O38     -C39     -H90     : 179.464834
 C17     -O38     -C39     -H91     : -61.783657
 C17     -O38     -C39     -H104    :  60.781286
 C18     -C17     -C16     -C21     :-179.328762
 C18     -C17     -O38     -C39     :   1.482542
 C18     -C19     -C20     -O36     :-176.506225
 C19     -C18     -C17     -O38     : 178.339385
 C19     -C20     -O36     -C37     :  -0.205348
 C20     -C15     -C16     -C21     :-178.700893
 C20     -C19     -C18     -H62     : 179.470118
 C20     -O36     -C37     -H87     : 179.509060
 C20     -O36     -C37     -H88     :  60.818917
 C20     -O36     -C37     -H89     : -61.836758
 C21     -C16     -C17     -O38     :   0.670187
 C21     -C22     -C23     -C24     :   0.222135
 C21     -C22     -C23     -H64     : 178.140855
 C21     -C22     -C31     -C30     : 112.525450
 C21     -C22     -C31     -C32     :-122.321959
 C21     -C22     -C31     -H76     :  -4.310518
 C21     -C26     -C25     -C24     :  -0.280574
 C21     -C26     -C25     -H65     :-178.185218
 C21     -C26     -C27     -C28     :-106.258100
 C21     -C26     -C27     -C29     : 128.856639
 C21     -C26     -C27     -H66     :  11.168233
 C22     -C21     -C26     -C25     :   0.153962
 C22     -C21     -C26     -C27     : 178.716940
 C22     -C23     -C24     -C25     :  -0.334130
 C22     -C23     -C24     -C34     : 178.706980
 C22     -C31     -C30     -H73     :  64.936946
 C22     -C31     -C30     -H74     :-175.239219
 C22     -C31     -C30     -H75     : -54.855565
 C22     -C31     -C32     -H77     : -63.176805
 C22     -C31     -C32     -H78     : 176.820118
 C22     -C31     -C32     -H79     :  56.146343
 C23     -C22     -C21     -C26     :  -0.125805
 C23     -C22     -C31     -C30     : -64.457531
 C23     -C22     -C31     -C32     :  60.695061
 C23     -C22     -C31     -H76     : 178.706502
 C23     -C24     -C25     -C26     :   0.366282
 C23     -C24     -C25     -H65     : 178.283705
 C23     -C24     -C34     -C33     : -21.247534
 C23     -C24     -C34     -C35     : 104.438521
 C23     -C24     -C34     -H95     :-139.007159
 C24     -C23     -C22     -C31     : 177.252580
 C24     -C25     -C26     -C27     :-178.857992
 C24     -C34     -C33     -H92     :  69.258632
 C24     -C34     -C33     -H81     : -51.862257
 C24     -C34     -C33     -H94     :-171.752507
 C24     -C34     -C35     -H84     : -64.380367
 C24     -C34     -C35     -H85     :  55.409550
 C24     -C34     -C35     -H86     : 175.838529
 C25     -C24     -C23     -H64     :-178.230413
 C25     -C24     -C34     -C33     : 157.789098
 C25     -C24     -C34     -C35     : -76.524848
 C25     -C24     -C34     -H95     :  40.029472
 C25     -C26     -C27     -C28     :  72.293929
 C25     -C26     -C27     -C29     : -52.591332
 C25     -C26     -C27     -H66     :-170.279738
 C26     -C21     -C22     -C31     :-177.099952
 C26     -C25     -C24     -C34     :-178.720839
 C26     -C27     -C28     -H67     : -62.839006
 C26     -C27     -C28     -H68     :  56.793197
 C26     -C27     -C28     -H69     : 177.507327
 C26     -C27     -C29     -H70     :  71.449987
 C26     -C27     -C29     -H71     :-168.722600
 C26     -C27     -C29     -H72     : -48.153552
 C27     -C26     -C25     -H65     :   3.237364
 C28     -C27     -C29     -H70     : -53.428854
 C28     -C27     -C29     -H71     :  66.398559
 C28     -C27     -C29     -H72     :-173.032392
 C29     -C27     -C28     -H67     :  62.457703
 C29     -C27     -C28     -H68     :-177.910094
 C29     -C27     -C28     -H69     : -57.195964
 C30     -C31     -C32     -H77     :  61.431190
 C30     -C31     -C32     -H78     : -58.571887
 C30     -C31     -C32     -H79     :-179.245662
 C31     -C22     -C23     -H64     :  -4.828701
 C32     -C31     -C30     -H73     : -59.979590
 C32     -C31     -C30     -H74     :  59.844244
 C32     -C31     -C30     -H75     :-179.772102
 C33     -C34     -C35     -H84     :  62.899721
 C33     -C34     -C35     -H85     :-177.310362
 C33     -C34     -C35     -H86     : -56.881383
 C34     -C24     -C23     -H64     :   0.810697
 C34     -C24     -C25     -H65     :  -0.803417
 C35     -C34     -C33     -H92     : -55.976338
 C35     -C34     -C33     -H81     :-177.097227
 C35     -C34     -C33     -H94     :  63.012524
 O36     -C20     -C19     -H63     :   2.620500
 O38     -C17     -C18     -H62     :  -0.906863
 H40     -C3      -C4      -H41     : -53.716408
 H40     -C3      -C4      -H42     :-170.398338
 H40     -C3      -C8      -H49     :  53.113235
 H40     -C3      -C8      -H50     : 171.170965
 H41     -C4      -C5      -H43     : -61.762767
 H41     -C4      -C5      -H44     :  54.741766
 H42     -C4      -C5      -H43     :  55.001722
 H42     -C4      -C5      -H44     : 171.506256
 H43     -C5      -C6      -H45     :  57.732161
 H43     -C5      -C6      -H46     : -59.846864
 H44     -C5      -C6      -H45     : -59.433520
 H44     -C5      -C6      -H46     :-177.012545
 H45     -C6      -C7      -H47     : -57.114579
 H45     -C6      -C7      -H48     :  60.104426
 H46     -C6      -C7      -H47     :  60.219216
 H46     -C6      -C7      -H48     : 177.438220
 H47     -C7      -C8      -H49     :  60.883639
 H47     -C7      -C8      -H50     : -55.802293
 H48     -C7      -C8      -H49     : -55.791472
 H48     -C7      -C8      -H50     :-172.477404
 H51     -C9      -C10     -H52     : 179.885484
 H51     -C9      -C10     -H53     :  61.837451
 H51     -C9      -C14     -H60     : 179.785766
 H51     -C9      -C14     -H61     : -63.632869
 H52     -C10     -C11     -H54     :-176.662454
 H52     -C10     -C11     -H55     : -60.286112
 H53     -C10     -C11     -H54     : -59.450094
 H53     -C10     -C11     -H55     :  56.926249
 H54     -C11     -C12     -H56     : 174.351614
 H54     -C11     -C12     -H57     :  57.352254
 H55     -C11     -C12     -H56     :  57.220401
 H55     -C11     -C12     -H57     : -59.778959
 H56     -C12     -C13     -H58     :-173.754698
 H56     -C12     -C13     -H59     : -56.575173
 H57     -C12     -C13     -H58     : -56.725365
 H57     -C12     -C13     -H59     :  60.454160
 H58     -C13     -C14     -H60     : 176.291965
 H58     -C13     -C14     -H61     :  59.554813
 H59     -C13     -C14     -H60     :  59.906575
 H59     -C13     -C14     -H61     : -56.830577
 H62     -C18     -C19     -H63     :   0.324461
 H66     -C27     -C28     -H67     : 179.995046
 H66     -C27     -C28     -H68     : -60.372750
 H66     -C27     -C28     -H69     :  60.341379
 H66     -C27     -C29     -H70     :-171.042465
 H66     -C27     -C29     -H71     : -51.215052
 H66     -C27     -C29     -H72     :  69.353996
 H73     -C30     -C31     -H76     :-178.018542
 H74     -C30     -C31     -H76     : -58.194707
 H75     -C30     -C31     -H76     :  62.188947
 H76     -C31     -C32     -H77     : 179.040187
 H76     -C31     -C32     -H78     :  59.037110
 H76     -C31     -C32     -H79     : -61.636665
 H92     -C33     -C34     -H95     :-173.705887
 H81     -C33     -C34     -H95     :  65.173224
 H94     -C33     -C34     -H95     : -54.717025
 H95     -C34     -C35     -H84     :-179.753795
 H95     -C34     -C35     -H85     : -59.963879
 H95     -C34     -C35     -H86     :  60.465101
 C106    -C105    -C107    -H115    : -59.964768
 C106    -C105    -C107    -H116    :  60.035232
 C106    -C105    -C107    -H117    :-179.964768
 C106    -C105    -C108    -H112    :  59.964768
 C106    -C105    -C108    -H113    : 179.964768
 C106    -C105    -C108    -H114    : -60.035232
 C107    -C105    -C106    -H109    :  59.964768
 C107    -C105    -C106    -H110    : 179.964768
 C107    -C105    -C106    -H111    : -60.035232
 C107    -C105    -C108    -H112    : -59.964768
 C107    -C105    -C108    -H113    :  60.035232
 C107    -C105    -C108    -H114    :-179.964768
 C108    -C105    -C106    -H109    : -59.964768
 C108    -C105    -C106    -H110    :  60.035232
 C108    -C105    -C106    -H111    :-179.964768
 C108    -C105    -C107    -H115    :  59.964768
 C108    -C105    -C107    -H116    : 179.964768
 C108    -C105    -C107    -H117    : -60.035232
 
  nuclear repulsion energy.......          8884.358862271 hartrees
  
  Detected an organometallic with only one TM atom. 
  
  
 
  Will use High-Quality Initial guess for organometallics
       including d-d repulsion (iguess=30)
 
 Non-default options chosen:
   SCF calculation type: DFT(b3pw91-d3)              
   DFT=Becke_3_Parameter/HF+Slater+Becke88+PW91+PW-GGAIIC (B3PW91-D3)
   Geometry will be optimized in redundant internal coordinates
   Solvation energy will be computed using PBF
     -solute cavity energy will not be included
     -surface area terms will not be included
   Vibrational frequencies and related properties will be computed
      from analytic second derivatives
   IR intensities will be computed
   Thermochemical properties will be computed
   Maximum number of geometry steps: 100
   Scaling standard convergence criteria by a factor of   5.00
   Solvent: benzene                                                         
   Internal dielectric constant:    1.000
   Continuum dielectric constant:   2.283
   Solvent probe molecule radius:   2.600
  
 Non-default print settings:
     11=  2
  
 Temporary integer options set:
     21= -1  73=  2
  
  atom       vdw   vdw2    cov     mass  grid  daf  charge   basis
  P1        2.147  2.074  1.060   30.974    Y    Y      Y    ps_6-31g*
  Pd2       1.450  1.450  1.280  105.903    Y    Y      Y    lacv3p*
  O3        1.702  1.600  0.730   15.995    Y    Y      Y    ps_6-31g*
  C73       1.949  1.900  0.770   12.000    Y    Y      Y    ps_6-31g*
  C74       1.949  1.900  0.770   12.000    Y    Y      Y    ps_6-31g*
  C75       1.949  1.900  0.770   12.000    Y    Y      Y    ps_6-31g*
  C76       1.949  1.900  0.770   12.000    Y    Y      Y    ps_6-31g*
  C77       1.949  1.900  0.770   12.000    Y    Y      Y    ps_6-31g*
  C78       1.949  1.900  0.770   12.000    Y    Y      Y    ps_6-31g*
  F79       1.736  1.682  0.720   18.998    Y    Y      Y    ps_6-31g*
  H80       1.597  1.150  0.320    1.008    Y    Y      Y    ps_6-31g*
  H82       1.597  1.150  0.320    1.008    Y    Y      Y    ps_6-31g*
  H83       1.597  1.150  0.320    1.008    Y    Y      Y    ps_6-31g*
  H14       1.597  1.150  0.320    1.008    Y    Y      Y    ps_6-31g*
  C3        1.949  1.900  0.770   12.000    Y    Y      Y    ps_6-31g*
  C4        1.949  1.900  0.770   12.000    Y    Y      Y    ps_6-31g*
  C5        1.949  1.900  0.770   12.000    Y    Y      Y    ps_6-31g*
  C6        1.949  1.900  0.770   12.000    Y    Y      Y    ps_6-31g*
  C7        1.949  1.900  0.770   12.000    Y    Y      Y    ps_6-31g*
  C8        1.949  1.900  0.770   12.000    Y    Y      Y    ps_6-31g*
  C9        1.949  1.900  0.770   12.000    Y    Y      Y    ps_6-31g*
  C10       1.949  1.900  0.770   12.000    Y    Y      Y    ps_6-31g*
  C11       1.949  1.900  0.770   12.000    Y    Y      Y    ps_6-31g*
  C12       1.949  1.900  0.770   12.000    Y    Y      Y    ps_6-31g*
  C13       1.949  1.900  0.770   12.000    Y    Y      Y    ps_6-31g*
  C14       1.949  1.900  0.770   12.000    Y    Y      Y    ps_6-31g*
  C15       1.949  1.900  0.770   12.000    Y    Y      Y    ps_6-31g*
  C16       1.949  1.900  0.770   12.000    Y    Y      Y    ps_6-31g*
  C17       1.949  1.900  0.770   12.000    Y    Y      Y    ps_6-31g*
  C18       1.949  1.900  0.770   12.000    Y    Y      Y    ps_6-31g*
  C19       1.949  1.900  0.770   12.000    Y    Y      Y    ps_6-31g*
  C20       1.949  1.900  0.770   12.000    Y    Y      Y    ps_6-31g*
  C21       1.949  1.900  0.770   12.000    Y    Y      Y    ps_6-31g*
  C22       1.949  1.900  0.770   12.000    Y    Y      Y    ps_6-31g*
  C23       1.949  1.900  0.770   12.000    Y    Y      Y    ps_6-31g*
  C24       1.949  1.900  0.770   12.000    Y    Y      Y    ps_6-31g*
  C25       1.949  1.900  0.770   12.000    Y    Y      Y    ps_6-31g*
  C26       1.949  1.900  0.770   12.000    Y    Y      Y    ps_6-31g*
  C27       1.949  1.900  0.770   12.000    Y    Y      Y    ps_6-31g*
  C28       1.949  1.900  0.770   12.000    Y    Y      Y    ps_6-31g*
  C29       1.949  1.900  0.770   12.000    Y    Y      Y    ps_6-31g*
  C30       1.949  1.900  0.770   12.000    Y    Y      Y    ps_6-31g*
  C31       1.949  1.900  0.770   12.000    Y    Y      Y    ps_6-31g*
  C32       1.949  1.900  0.770   12.000    Y    Y      Y    ps_6-31g*
  C33       1.949  1.900  0.770   12.000    Y    Y      Y    ps_6-31g*
  C34       1.949  1.900  0.770   12.000    Y    Y      Y    ps_6-31g*
  C35       1.949  1.900  0.770   12.000    Y    Y      Y    ps_6-31g*
  O36       1.702  1.600  0.730   15.995    Y    Y      Y    ps_6-31g*
  C37       1.949  1.900  0.770   12.000    Y    Y      Y    ps_6-31g*
  O38       1.702  1.600  0.730   15.995    Y    Y      Y    ps_6-31g*
  C39       1.949  1.900  0.770   12.000    Y    Y      Y    ps_6-31g*
  H40       1.597  1.150  0.320    1.008    Y    Y      Y    ps_6-31g*
  H41       1.597  1.150  0.320    1.008    Y    Y      Y    ps_6-31g*
  H42       1.597  1.150  0.320    1.008    Y    Y      Y    ps_6-31g*
  H43       1.597  1.150  0.320    1.008    Y    Y      Y    ps_6-31g*
  H44       1.597  1.150  0.320    1.008    Y    Y      Y    ps_6-31g*
  H45       1.597  1.150  0.320    1.008    Y    Y      Y    ps_6-31g*
  H46       1.597  1.150  0.320    1.008    Y    Y      Y    ps_6-31g*
  H47       1.597  1.150  0.320    1.008    Y    Y      Y    ps_6-31g*
  H48       1.597  1.150  0.320    1.008    Y    Y      Y    ps_6-31g*
  H49       1.597  1.150  0.320    1.008    Y    Y      Y    ps_6-31g*
  H50       1.597  1.150  0.320    1.008    Y    Y      Y    ps_6-31g*
  H51       1.597  1.150  0.320    1.008    Y    Y      Y    ps_6-31g*
  H52       1.597  1.150  0.320    1.008    Y    Y      Y    ps_6-31g*
  H53       1.597  1.150  0.320    1.008    Y    Y      Y    ps_6-31g*
  H54       1.597  1.150  0.320    1.008    Y    Y      Y    ps_6-31g*
  H55       1.597  1.150  0.320    1.008    Y    Y      Y    ps_6-31g*
  H56       1.597  1.150  0.320    1.008    Y    Y      Y    ps_6-31g*
  H57       1.597  1.150  0.320    1.008    Y    Y      Y    ps_6-31g*
  H58       1.597  1.150  0.320    1.008    Y    Y      Y    ps_6-31g*
  H59       1.597  1.150  0.320    1.008    Y    Y      Y    ps_6-31g*
  H60       1.597  1.150  0.320    1.008    Y    Y      Y    ps_6-31g*
  H61       1.597  1.150  0.320    1.008    Y    Y      Y    ps_6-31g*
  H62       1.597  1.150  0.320    1.008    Y    Y      Y    ps_6-31g*
  H63       1.597  1.150  0.320    1.008    Y    Y      Y    ps_6-31g*
  H64       1.597  1.150  0.320    1.008    Y    Y      Y    ps_6-31g*
  H65       1.597  1.150  0.320    1.008    Y    Y      Y    ps_6-31g*
  H66       1.597  1.150  0.320    1.008    Y    Y      Y    ps_6-31g*
  H67       1.597  1.150  0.320    1.008    Y    Y      Y    ps_6-31g*
  H68       1.597  1.150  0.320    1.008    Y    Y      Y    ps_6-31g*
  H69       1.597  1.150  0.320    1.008    Y    Y      Y    ps_6-31g*
  H70       1.597  1.150  0.320    1.008    Y    Y      Y    ps_6-31g*
  H71       1.597  1.150  0.320    1.008    Y    Y      Y    ps_6-31g*
  H72       1.597  1.150  0.320    1.008    Y    Y      Y    ps_6-31g*
  H73       1.597  1.150  0.320    1.008    Y    Y      Y    ps_6-31g*
  H74       1.597  1.150  0.320    1.008    Y    Y      Y    ps_6-31g*
  H75       1.597  1.150  0.320    1.008    Y    Y      Y    ps_6-31g*
  H76       1.597  1.150  0.320    1.008    Y    Y      Y    ps_6-31g*
  H77       1.597  1.150  0.320    1.008    Y    Y      Y    ps_6-31g*
  H78       1.597  1.150  0.320    1.008    Y    Y      Y    ps_6-31g*
  H79       1.597  1.150  0.320    1.008    Y    Y      Y    ps_6-31g*
  H92       1.597  1.150  0.320    1.008    Y    Y      Y    ps_6-31g*
  H81       1.597  1.150  0.320    1.008    Y    Y      Y    ps_6-31g*
  H94       1.597  1.150  0.320    1.008    Y    Y      Y    ps_6-31g*
  H95       1.597  1.150  0.320    1.008    Y    Y      Y    ps_6-31g*
  H84       1.597  1.150  0.320    1.008    Y    Y      Y    ps_6-31g*
  H85       1.597  1.150  0.320    1.008    Y    Y      Y    ps_6-31g*
  H86       1.597  1.150  0.320    1.008    Y    Y      Y    ps_6-31g*
  H87       1.597  1.150  0.320    1.008    Y    Y      Y    ps_6-31g*
  H88       1.597  1.150  0.320    1.008    Y    Y      Y    ps_6-31g*
  H89       1.597  1.150  0.320    1.008    Y    Y      Y    ps_6-31g*
  H90       1.597  1.150  0.320    1.008    Y    Y      Y    ps_6-31g*
  H91       1.597  1.150  0.320    1.008    Y    Y      Y    ps_6-31g*
  H104      1.597  1.150  0.320    1.008    Y    Y      Y    ps_6-31g*
  C105      1.949  1.900  0.770   12.000    Y    Y      Y    ps_6-31g*
  C106      1.949  1.900  0.770   12.000    Y    Y      Y    ps_6-31g*
  C107      1.949  1.900  0.770   12.000    Y    Y      Y    ps_6-31g*
  C108      1.949  1.900  0.770   12.000    Y    Y      Y    ps_6-31g*
  H109      1.597  1.150  0.320    1.008    Y    Y      Y    ps_6-31g*
  H110      1.597  1.150  0.320    1.008    Y    Y      Y    ps_6-31g*
  H111      1.597  1.150  0.320    1.008    Y    Y      Y    ps_6-31g*
  H112      1.597  1.150  0.320    1.008    Y    Y      Y    ps_6-31g*
  H113      1.597  1.150  0.320    1.008    Y    Y      Y    ps_6-31g*
  H114      1.597  1.150  0.320    1.008    Y    Y      Y    ps_6-31g*
  H115      1.597  1.150  0.320    1.008    Y    Y      Y    ps_6-31g*
  H116      1.597  1.150  0.320    1.008    Y    Y      Y    ps_6-31g*
  H117      1.597  1.150  0.320    1.008    Y    Y      Y    ps_6-31g*
 
  atom      formal  2spin      esp    mulk    frag
  P1           0       0        Y    0.000       0
  Pd2          0       0        Y    0.000       0
  O3           0       0        Y    0.000       0
  
  end of program pre
   
 Time(pre)  user:       1.345  user+sys:       1.345  wallclock:       2.137
  
  start of program onee
  
  smallest eigenvalue of S:    2.984E-04
  number of canonical orbitals.....          864
  end of program onee
   
 Time(onee)  user:      12.635  user+sys:      12.635  wallclock:      15.167
  
  start of program hfig
  
  initial wavefunction generated automatically from atomic wavefunctions
  Only one possible d-orb occupation 
  Skip d-d repulsion considerations 
 
  Irreducible     Total no   No of occupied orbitals 
  representation  orbitals   Shell_1  Shell_2    ...
  No Symm          864        201
  ------------------------
  Orbital occupation/shell    1.000
 
  end of program hfig
   
 Time(hfig)  user:       2.521  user+sys:       2.521  wallclock:       3.733
  
  start of program probe
  
  end of program probe
   
 Time(probe)  user:       1.692  user+sys:       1.692  wallclock:       2.360
  
  start of program grid
  
   grid     grid set  grid #  grid sym
  ------    --------  ------  --------
  coarse        0        0        1
  medium        2        1        1
  fine          0        0        1
  ultrafine     4        2        1
  charge       -1        3        1
  gradient      4        2        1
  density       0        0        1
  DFT-fine    -11        4        1
  DFT-med.    -10        5        1
  DFT-grad    -12        6        1
  DFT-der2     -8        7        1
  DFT-cphf     -9        8        1
  LMP2-enrg     4        2        1
  LMP2-grad     2        1        1
  DFT-cphf2   -15        9        1
  PBF-dens      0        0        1
  plotting      0        0        1
  Rel-grad    -17        0        1
  
  number of gridpoints: 
     atom           P1         Pd2          O3         C73         C74         C75         C76
  grid # 1         605         355         119          77          91          93          94
  grid # 2         426         301         489         329         317         318         358
  grid # 3           7         201          62          18           9           7           6
  grid # 4        8714        8714        8714        8714        8714        8714        8714
  grid # 5        1192        1192        1192        1192        1192        1192        1192
  grid # 6        9132        9132        5922        5922        5922        5922        5922
  grid # 7       23034       32968       23382       13950       13950       13950       13950
  grid # 8         722        1150         774         748         748         748         748
  grid # 9         366        2198         416         394         394         394         394
   
  number of gridpoints: 
     atom          C77         C78         F79         H80         H82         H83         H14
  grid # 1          87          91         584         114          94         113         108
  grid # 2         276         317         566         463         392         460         443
  grid # 3           6           8         346         381          55         351         169
  grid # 4        8714        8714        8714        8714        8714        8714        8714
  grid # 5        1192        1192        1192        1192        1192        1192        1192
  grid # 6        5922        5922        5922        5922        5922        5922        5922
  grid # 7       13950       13950       23190       15206       15206       15206       15206
  grid # 8         748         748         770         786         786         786         786
  grid # 9         394         394         420         420         420         420         420
   
  number of gridpoints: 
     atom           C3          C4          C5          C6          C7          C8          C9
  grid # 1          79          90          92          92          92          90          80
  grid # 2         327         283         278         277         279         277         328
  grid # 3           6           6           6           6           6           6           6
  grid # 4        8714        8714        8714        8714        8714        8714        8714
  grid # 5        1192        1192        1192        1192        1192        1192        1192
  grid # 6        5922        5922        5922        5922        5922        5922        5922
  grid # 7       13950       13950       13950       13950       13950       13950       13950
  grid # 8         748         748         748         748         748         748         748
  grid # 9         394         394         394         394         394         394         394
   
  number of gridpoints: 
     atom          C10         C11         C12         C13         C14         C15         C16
  grid # 1          91          92          92          92          90          93          96
  grid # 2         277         277         278         277         278         381         350
  grid # 3           6           6           6           6           6           8           6
  grid # 4        8714        8714        8714        8714        8714        8714        8714
  grid # 5        1192        1192        1192        1192        1192        1192        1192
  grid # 6        5922        5922        5922        5922        5922        5922        5922
  grid # 7       13950       13950       13950       13950       13950       13950       13950
  grid # 8         748         748         748         748         748         748         748
  grid # 9         394         394         394         394         394         394         394
   
  number of gridpoints: 
     atom          C17         C18         C19         C20         C21         C22         C23
  grid # 1          92          95          96          92          97          96          94
  grid # 2         343         325         324         341         355         357         324
  grid # 3          14          33          31          15           7           7          16
  grid # 4        8714        8714        8714        8714        8714        8714        8714
  grid # 5        1192        1192        1192        1192        1192        1192        1192
  grid # 6        5922        5922        5922        5922        5922        5922        5922
  grid # 7       13950       13950       13950       13950       13950       13950       13950
  grid # 8         748         748         748         748         748         748         748
  grid # 9         394         394         394         394         394         394         394
   
  number of gridpoints: 
     atom          C24         C25         C26         C27         C28         C29         C30
  grid # 1          97          94          98          90          81          81          81
  grid # 2         355         324         361         304         239         235         241
  grid # 3          14          14           7           6           6           6           6
  grid # 4        8714        8714        8714        8714        8714        8714        8714
  grid # 5        1192        1192        1192        1192        1192        1192        1192
  grid # 6        5922        5922        5922        5922        5922        5922        5922
  grid # 7       13950       13950       13950       13950       13950       13950       13950
  grid # 8         748         748         748         748         748         748         748
  grid # 9         394         394         394         394         394         394         394
   
  number of gridpoints: 
     atom          C31         C32         C33         C34         C35         O36         C37
  grid # 1          90          79          82          91          81         114          75
  grid # 2         304         243         235         302         239         433         223
  grid # 3           6           6           6           6           6          17           6
  grid # 4        8714        8714        8714        8714        8714        8714        8714
  grid # 5        1192        1192        1192        1192        1192        1192        1192
  grid # 6        5922        5922        5922        5922        5922        5922        5922
  grid # 7       13950       13950       13950       13950       13950       23382       13950
  grid # 8         748         748         748         748         748         774         748
  grid # 9         394         394         394         394         394         416         394
   
  number of gridpoints: 
     atom          O38         C39         H40         H41         H42         H43         H44
  grid # 1         117          76         100         102         101         111         110
  grid # 2         441         225         425         430         425         456         449
  grid # 3          27           6          77         117          46         290         254
  grid # 4        8714        8714        8714        8714        8714        8714        8714
  grid # 5        1192        1192        1192        1192        1192        1192        1192
  grid # 6        5922        5922        5922        5922        5922        5922        5922
  grid # 7       23382       13950       15206       15206       15206       15206       15206
  grid # 8         774         748         786         786         786         786         786
  grid # 9         416         394         420         420         420         420         420
   
  number of gridpoints: 
     atom          H45         H46         H47         H48         H49         H50         H51
  grid # 1         112         109         112         110         103         102          99
  grid # 2         460         446         457         450         432         421         423
  grid # 3         331         202         308         252         128          50          71
  grid # 4        8714        8714        8714        8714        8714        8714        8714
  grid # 5        1192        1192        1192        1192        1192        1192        1192
  grid # 6        5922        5922        5922        5922        5922        5922        5922
  grid # 7       15206       15206       15206       15206       15206       15206       15206
  grid # 8         786         786         786         786         786         786         786
  grid # 9         420         420         420         420         420         420         420
   
  number of gridpoints: 
     atom          H52         H53         H54         H55         H56         H57         H58
  grid # 1         101         103         110         112         109         112         110
  grid # 2         413         429         444         454         449         456         451
  grid # 3          35         126         230         318         227         331         247
  grid # 4        8714        8714        8714        8714        8714        8714        8714
  grid # 5        1192        1192        1192        1192        1192        1192        1192
  grid # 6        5922        5922        5922        5922        5922        5922        5922
  grid # 7       15206       15206       15206       15206       15206       15206       15206
  grid # 8         786         786         786         786         786         786         786
  grid # 9         420         420         420         420         420         420         420
   
  number of gridpoints: 
     atom          H59         H60         H61         H62         H63         H64         H65
  grid # 1         112          99          98         111         110         103         106
  grid # 2         452         408         406         442         442         421         430
  grid # 3         300          47          53         248         250          75         124
  grid # 4        8714        8714        8714        8714        8714        8714        8714
  grid # 5        1192        1192        1192        1192        1192        1192        1192
  grid # 6        5922        5922        5922        5922        5922        5922        5922
  grid # 7       15206       15206       15206       15206       15206       15206       15206
  grid # 8         786         786         786         786         786         786         786
  grid # 9         420         420         420         420         420         420         420
   
  number of gridpoints: 
     atom          H66         H67         H68         H69         H70         H71         H72
  grid # 1         102         108         105         110         107         106         100
  grid # 2         417         447         435         456         444         443         419
  grid # 3          48         248         145         318         240         236          67
  grid # 4        8714        8714        8714        8714        8714        8714        8714
  grid # 5        1192        1192        1192        1192        1192        1192        1192
  grid # 6        5922        5922        5922        5922        5922        5922        5922
  grid # 7       15206       15206       15206       15206       15206       15206       15206
  grid # 8         786         786         786         786         786         786         786
  grid # 9         420         420         420         420         420         420         420
   
  number of gridpoints: 
     atom          H73         H74         H75         H76         H77         H78         H79
  grid # 1         108         109         106         102         102         106          93
  grid # 2         447         455         441         419         421         442         382
  grid # 3         255         318         183          53         154         227          31
  grid # 4        8714        8714        8714        8714        8714        8714        8714
  grid # 5        1192        1192        1192        1192        1192        1192        1192
  grid # 6        5922        5922        5922        5922        5922        5922        5922
  grid # 7       15206       15206       15206       15206       15206       15206       15206
  grid # 8         786         786         786         786         786         786         786
  grid # 9         420         420         420         420         420         420         420
   
  number of gridpoints: 
     atom          H92         H81         H94         H95         H84         H85         H86
  grid # 1         105         103         108         110         110         107         110
  grid # 2         440         427         452         443         454         453         454
  grid # 3         242         123         319         223         287         265         320
  grid # 4        8714        8714        8714        8714        8714        8714        8714
  grid # 5        1192        1192        1192        1192        1192        1192        1192
  grid # 6        5922        5922        5922        5922        5922        5922        5922
  grid # 7       15206       15206       15206       15206       15206       15206       15206
  grid # 8         786         786         786         786         786         786         786
  grid # 9         420         420         420         420         420         420         420
   
  number of gridpoints: 
     atom          H87         H88         H89         H90         H91        H104        C105
  grid # 1         111         111         111         111         109         109          95
  grid # 2         458         448         450         460         446         444         330
  grid # 3         340         291         306         347         279         261           6
  grid # 4        8714        8714        8714        8714        8714        8714        8714
  grid # 5        1192        1192        1192        1192        1192        1192        1192
  grid # 6        5922        5922        5922        5922        5922        5922        5922
  grid # 7       15206       15206       15206       15206       15206       15206       13950
  grid # 8         786         786         786         786         786         786         748
  grid # 9         420         420         420         420         420         420         394
   
  number of gridpoints: 
     atom         C106        C107        C108        H109        H110        H111        H112
  grid # 1          80          80          80         109         105         110         108
  grid # 2         239         243         239         448         434         453         447
  grid # 3           6           6           6         280         168         301         259
  grid # 4        8714        8714        8714        8714        8714        8714        8714
  grid # 5        1192        1192        1192        1192        1192        1192        1192
  grid # 6        5922        5922        5922        5922        5922        5922        5922
  grid # 7       13950       13950       13950       15206       15206       15206       15206
  grid # 8         748         748         748         786         786         786         786
  grid # 9         394         394         394         420         420         420         420
   
  number of gridpoints: 
     atom         H113        H114        H115        H116        H117       total
  grid # 1          94         100         108         104          78       12872
  grid # 2         388         419         441         421         350       44815
  grid # 3          26          85         228         123           6       14343
  grid # 4        8714        8714        8714        8714        8714     1019538
  grid # 5        1192        1192        1192        1192        1192      139464
  grid # 6        5922        5922        5922        5922        5922      699294
  grid # 7       15206       15206       15206       15206       15206     1780684
  grid # 8         786         786         786         786         786       90500
  grid # 9         420         420         420         420         420       49682
   
  end of program grid
   
 Time(grid)  user:    1249.734  user+sys:    1249.734  wallclock:     791.746
  
  start of program rwr
  
  end of program rwr
   
 Time(rwr)  user:      49.573  user+sys:      49.573  wallclock:      91.846
  
  start of program scf
  
 number of electrons..........        402
 number of alpha electrons....        201
 number of beta electrons.....        201
 number of orbitals, total....        864
 number of doubly-occ'd orbs..        201
 number of open shell orbs....          0
 number of occupied orbitals..        201
 number of virtual orbitals...        663
 number of hamiltonians.......          1
 number of shells.............          1
 SCF type: DFT=Becke_3_Parameter/HF+Slater+Becke88+PW91+PW-GGAIIC (B3PW91-D3)
 Energy computed using pseudospectral method.
 Convergence Criterion:
    Energy (econv):       1.00E-05
    RMS density (dconv):  5.00E-06
  
       i  u  d  i  g                   
       t  p  i  c  r                                 RMS    maximum
       e  d  i  u  i                       energy  density   DIIS  
       r  t  s  t  d       total energy    change  change    error 
  
etot    1  N  N  5  M   -2539.57895843952           2.4E-03  1.7E-01
etot    2  Y  Y  6  M   -2544.56942200262  5.0E+00  3.8E-03  1.3E-01
etot    3  Y  Y  6  M   -2545.09385684465  5.2E-01  2.4E-03  1.1E-01
etot    4  N  Y  2  U   -2546.39538579055  1.3E+00  1.8E-03  4.4E-02
etot    5  Y  Y  6  M   -2547.00822579606  6.1E-01  1.0E-03  2.4E-02
etot    6  N  Y  2  U   -2547.10586948878  9.8E-02  6.6E-04  9.1E-03
etot    7  Y  Y  6  M   -2547.11211591654  6.2E-03  2.0E-04  9.0E-03
etot    8  N  Y  2  U   -2547.13019651712  1.8E-02  7.5E-05  2.0E-03
etot    9  Y  Y  6  M   -2547.13187766016  1.7E-03  2.9E-05  5.6E-04
etot   10  N  Y  2  U   -2547.13171457735 -1.6E-04  2.2E-05  3.1E-04
etot   11  N  Y  2  U   -2547.13177315140  5.9E-05  9.6E-06  1.4E-04
etot   12  N  Y  2  U   -2547.13178880491  1.6E-05  5.2E-06  5.4E-05
etot   13  N  Y  2  U   -2547.13179234314  3.5E-06  2.3E-06  3.0E-05
etot   14  N  N  2  U   -2547.13179296387  6.2E-07  0.0E+00  0.0E+00
 
  Computing the dispersion energy correction and its gradients...
  
  
 Energy components, in hartrees:
   (A)  Nuclear repulsion............    8884.35886227144
   (E)  Total one-electron terms.....  -21233.69005656603
   (F)    Electron-nuclear...........  -23687.21266179053
   (H)    Kinetic....................    2453.52260522450
   (I)  Total two-electron terms.....    9802.19940133072
   (J)    Coulomb....................   10143.27015022727
   (K)    Exchange+Correlation.......    -341.07074889655
   (L)  Electronic energy............  -11431.49065523531  (E+I)
   (N0) D3 correction................      -0.23157672983
   (N)  Total energy.................   -2547.36336969370  (A+L+N0)
   (O)  Gas phase energy.............   -2547.36336969370
  
 SCFE: SCF energy: DFT(b3pw91-d3)     -2547.36336969370 hartrees   iterations:  14
  
 
 HOMO energy:    -0.13878
 LUMO energy:    -0.03752
 
  Orbital energies (hartrees): 
   -77.06894   -24.65828   -19.18542   -19.17666   -19.05353   -10.24717
   -10.24133   -10.23718   -10.22921   -10.22153   -10.20096   -10.19316
   -10.18933   -10.18822   -10.18520   -10.18288   -10.18113   -10.17867
   -10.17760   -10.17439   -10.17180   -10.17074   -10.16731   -10.16709
   -10.16704   -10.16594   -10.16537   -10.16513   -10.16487   -10.16300
   -10.15783   -10.15460   -10.15447   -10.15439   -10.15413   -10.15191
   -10.15071   -10.14970   -10.14889   -10.14872   -10.14866   -10.14422
   -10.14380   -10.13872   -10.13791   -10.13775   -10.13400   -10.12077
   -10.11946   -10.09858    -6.56978    -4.72820    -4.72690    -4.72453
    -3.32797    -2.05999    -2.05724    -2.02762    -1.18991    -1.09098
    -1.08347    -0.89652    -0.88183    -0.87290    -0.86063    -0.84497
    -0.82929    -0.81349    -0.81249    -0.78618    -0.78466    -0.77740
    -0.76952    -0.75907    -0.74986    -0.74010    -0.73709    -0.73649
    -0.73598    -0.72168    -0.71880    -0.71756    -0.69733    -0.68756
    -0.67920    -0.67856    -0.66102    -0.65891    -0.65401    -0.63437
    -0.62552    -0.62181    -0.61273    -0.60530    -0.60236    -0.59950
    -0.59453    -0.59135    -0.58163    -0.56804    -0.56422    -0.54815
    -0.54532    -0.53854    -0.53139    -0.52845    -0.52628    -0.52135
    -0.50821    -0.49531    -0.49093    -0.48862    -0.48060    -0.47762
    -0.47666    -0.47107    -0.45936    -0.45817    -0.45169    -0.44946
    -0.44575    -0.44446    -0.44262    -0.44145    -0.43918    -0.43708
    -0.43589    -0.43382    -0.43191    -0.42952    -0.42913    -0.42600
    -0.42499    -0.42437    -0.42264    -0.41489    -0.41207    -0.41002
    -0.40704    -0.40517    -0.40314    -0.39800    -0.39490    -0.39183
    -0.38727    -0.38550    -0.38140    -0.37988    -0.37932    -0.37780
    -0.37311    -0.37047    -0.37011    -0.36894    -0.36786    -0.36497
    -0.36223    -0.35865    -0.35579    -0.35454    -0.35307    -0.35043
    -0.34923    -0.34859    -0.34382    -0.34034    -0.33718    -0.33584
    -0.33389    -0.33283    -0.33061    -0.32873    -0.32482    -0.32299
    -0.32175    -0.31832    -0.31579    -0.31264    -0.30924    -0.30510
    -0.30412    -0.30333    -0.30119    -0.29824    -0.29281    -0.29144
    -0.28927    -0.28323    -0.28126    -0.26825    -0.26211    -0.25744
    -0.25348    -0.23418    -0.22684    -0.21824    -0.21595    -0.21280
    -0.19803    -0.17867    -0.13878    -0.03752    -0.03060    -0.00518
     0.00072     0.00801     0.01462     0.02913     0.04382     0.05317
     0.06266
 
  end of program scf
   
 Time(scf)  user:    1661.667  user+sys:    1661.667  wallclock:    1088.474
  
  start of program der1a
  
  end of program der1a
   
 Time(der1a)  user:      34.636  user+sys:      34.636  wallclock:      23.278
  
  start of program rwr
  
  end of program rwr
   
 Time(rwr)  user:      64.767  user+sys:      64.767  wallclock:     115.681
  
  start of program der1b
  
   
  forces (hartrees/bohr) : total     
   
 atom  label           x              y              z
 ---- --------   -------------  -------------  -------------
    1 P1         -4.074208E-05  -4.204084E-03   3.264980E-03
    2 Pd2         2.671197E-03   3.566200E-03  -1.488057E-03
    3 O3         -1.612575E-02   3.388839E-02   1.533474E-02
    4 C73         9.761214E-03  -1.625272E-02   8.174381E-03
    5 C74         1.501892E-02   1.934661E-02   1.422703E-03
    6 C75        -2.530647E-02  -7.017918E-03  -2.192306E-02
    7 C76         7.257870E-02  -7.983801E-02  -6.732933E-02
    8 C77         8.886763E-02   4.188143E-02  -1.009290E-01
    9 C78        -1.926472E-03   1.107334E-02  -2.021865E-02
   10 F79        -3.429951E-03  -7.494035E-05  -1.036104E-03
   11 H80        -2.310259E-04   5.942710E-04  -9.736522E-04
   12 H82         1.294953E-02   2.322041E-03  -1.070659E-02
   13 H83        -1.442730E-03  -1.353242E-03   8.757541E-04
   14 H14        -3.442916E-03  -2.644512E-04   1.026427E-03
   15 C3         -8.485201E-04  -1.026458E-04  -2.248606E-03
   16 C4          9.753408E-05   6.543355E-04   7.986415E-04
   17 C5         -1.868213E-04   7.001069E-05  -8.907481E-05
   18 C6         -2.401465E-04   1.290179E-04   4.151724E-04
   19 C7         -3.179508E-04   3.263421E-05  -3.796857E-04
   20 C8          1.612058E-03  -1.960477E-03  -7.071753E-05
   21 C9          2.311434E-04  -1.730529E-03  -1.126357E-03
   22 C10         3.669739E-05   9.541023E-04   4.548315E-05
   23 C11        -2.722563E-04  -3.558012E-04   4.512004E-05
   24 C12        -9.445496E-05  -7.439948E-05  -4.223726E-06
   25 C13        -6.587877E-04   1.363027E-04   2.636803E-04
   26 C14        -2.679668E-03   7.761743E-04  -1.006547E-02
   27 C15        -5.665158E-04   6.627116E-04  -4.112576E-03
   28 C16         2.516590E-04   4.053242E-04  -3.921853E-04
   29 C17         4.833906E-04   8.292216E-04  -1.790553E-03
   30 C18         1.471787E-04   7.125610E-04   1.456196E-03
   31 C19         3.127305E-04   7.484229E-04  -3.886128E-04
   32 C20        -1.426302E-03  -2.984294E-03   1.294356E-03
   33 C21        -8.704911E-04  -1.487997E-03   1.360824E-03
   34 C22         8.448098E-04  -5.162644E-05  -5.543774E-04
   35 C23         1.996277E-03   2.197365E-03   4.558284E-04
   36 C24         1.979736E-03   3.078434E-03  -6.282118E-04
   37 C25        -4.856604E-04   2.510077E-03   1.582842E-03
   38 C26        -3.178663E-04   1.897287E-03  -1.551295E-03
   39 C27        -8.314597E-06  -1.307890E-04  -1.775802E-05
   40 C28        -7.266225E-05   1.396728E-04  -4.873483E-06
   41 C29        -1.979451E-04   5.503458E-04   2.780075E-04
   42 C30         2.607175E-04  -6.482999E-04  -5.996398E-04
   43 C31        -2.393745E-03   3.021650E-04   1.320691E-04
   44 C32        -7.135440E-03  -6.987434E-03  -1.387327E-02
   45 C33         1.422044E-04  -3.965131E-04  -1.258604E-04
   46 C34         5.704376E-05  -1.308703E-04  -5.413781E-04
   47 C35         6.816867E-05   2.954928E-04   1.875148E-04
   48 O36        -1.353545E-04   8.142054E-04  -3.188324E-03
   49 C37         1.332285E-04  -2.348993E-05   3.103451E-03
   50 O38        -1.351833E-03  -2.561128E-03   6.308862E-04
   51 C39         1.152868E-03   2.222400E-03   3.329922E-04
   52 H40         8.267639E-04  -2.627724E-05  -3.658748E-04
   53 H41        -1.327181E-04  -2.171030E-04  -2.391130E-04
   54 H42         4.294157E-05   1.675891E-03   2.378537E-03
   55 H43        -3.566492E-05   6.570549E-05   1.890953E-05
   56 H44         1.500027E-05  -6.297063E-06  -1.712727E-04
   57 H45        -1.058124E-04  -1.724145E-05  -1.066587E-04
   58 H46        -9.005390E-05  -2.089607E-05   1.916944E-04
   59 H47        -1.273860E-04  -1.439342E-04   1.214358E-04
   60 H48         1.105678E-04  -8.637158E-05  -3.083374E-04
   61 H49        -9.767817E-05   4.268409E-04   7.073028E-05
   62 H50         5.230097E-04  -9.977509E-04   2.382512E-04
   63 H51        -3.727406E-04   1.087009E-03   2.131277E-04
   64 H52        -7.904051E-05  -2.434975E-04   1.609671E-04
   65 H53         4.161357E-05   4.319802E-05   1.485018E-04
   66 H54        -5.304656E-05   8.445942E-05   7.195298E-05
[...]
    O36      Z     0.00001   0.00010   0.00001
    C37      X     0.00003   0.00078  -0.00001
    C37      Y     0.00001   0.00161   0.00001
    C37      Z    -0.00001   0.00011  -0.00001
    O38      X    -0.00000   0.00002   0.00000
    O38      Y    -0.00000   0.00010   0.00000
    O38      Z     0.00001   0.00032   0.00000
    C39      X    -0.00000  -0.00000  -0.00001
    C39      Y    -0.00000   0.00008  -0.00001
    C39      Z    -0.00000   0.00164  -0.00001
    H40      X    -0.00073  -0.00014  -0.00017
    H40      Y    -0.00019  -0.00009  -0.00010
    H40      Z    -0.00269  -0.00036  -0.00043
    H41      X    -0.00244  -0.00006   0.00000
    H41      Y    -0.00501  -0.00000   0.00000
    H41      Z    -0.00156   0.00000   0.00003
    H42      X    -0.00149   0.00000  -0.00002
    H42      Y    -0.00103  -0.00001  -0.00008
    H42      Z    -0.01914  -0.00002  -0.00026
    H43      X    -0.00049   0.00010   0.00004
    H43      Y     0.00060  -0.00010  -0.00004
    H43      Z    -0.00022   0.00006   0.00001
    H44      X     0.00002  -0.00001   0.00001
    H44      Y    -0.00076  -0.00005   0.00003
    H44      Z    -0.00286  -0.00027   0.00014
    H45      X     0.00132   0.00017  -0.00010
    H45      Y     0.00004   0.00000  -0.00001
    H45      Z    -0.00087  -0.00007   0.00006
    H46      X    -0.00058  -0.00002   0.00003
    H46      Y    -0.00112  -0.00003   0.00005
    H46      Z    -0.00311  -0.00007   0.00016
    H47      X     0.00008   0.00006  -0.00013
    H47      Y     0.00031   0.00007  -0.00022
    H47      Z    -0.00001  -0.00000  -0.00003
    H48      X    -0.00022  -0.00001  -0.00001
    H48      Y    -0.00011  -0.00004  -0.00002
    H48      Z    -0.00090  -0.00017  -0.00008
    H49      X    -0.00137  -0.00007   0.00039
    H49      Y     0.00166   0.00007  -0.00039
    H49      Z    -0.00107  -0.00005   0.00053
    H50      X    -0.00081  -0.00000  -0.00058
    H50      Y    -0.00291  -0.00000  -0.00236
    H50      Z    -0.00849   0.00000  -0.00690
    H51      X    -0.00001   0.00005   0.00040
    H51      Y    -0.00004  -0.00002   0.00010
    H51      Z     0.00018  -0.00014  -0.00091
    H52      X    -0.00011   0.00004  -0.00000
    H52      Y    -0.00001  -0.00001   0.00004
    H52      Z     0.00018  -0.00008   0.00008
    H53      X     0.00003   0.00002  -0.00019
    H53      Y     0.00009  -0.00037  -0.00056
    H53      Z     0.00004  -0.00007  -0.00030
    H54      X    -0.00004   0.00011   0.00001
    H54      Y    -0.00001   0.00003   0.00000
    H54      Z     0.00009  -0.00019  -0.00002
    H55      X     0.00001  -0.00034  -0.00020
    H55      Y     0.00002  -0.00006  -0.00009
    H55      Z    -0.00000  -0.00005  -0.00004
    H56      X    -0.00005   0.00002  -0.00015
    H56      Y    -0.00000  -0.00001  -0.00001
    H56      Z     0.00007  -0.00003   0.00023
    H57      X     0.00006  -0.00008  -0.00021
    H57      Y    -0.00007   0.00013   0.00015
    H57      Z     0.00007  -0.00010  -0.00015
    H58      X    -0.00010   0.00004   0.00017
    H58      Y    -0.00004   0.00001  -0.00007
    H58      Z     0.00021  -0.00008  -0.00011
    H59      X    -0.00001  -0.00001   0.00018
    H59      Y     0.00014   0.00009  -0.00002
    H59      Z     0.00004   0.00003   0.00019
    H60      X    -0.00034   0.00002   0.00154
    H60      Y    -0.00002  -0.00000  -0.00054
    H60      Z     0.00050  -0.00003  -0.00555
    H61      X     0.00149  -0.00003  -0.01910
    H61      Y     0.00039  -0.00002  -0.00513
    H61      Z     0.00010  -0.00000  -0.00253
    H62      X    -0.00051  -0.26003   0.00067
    H62      Y    -0.00117  -0.58840   0.00153
    H62      Z    -0.00038  -0.19248   0.00050
    H63      X    -0.00004  -0.04037   0.00009
    H63      Y    -0.00020  -0.16909   0.00040
    H63      Z    -0.00080  -0.65151   0.00154
    H64      X     0.00131  -0.00131   0.00204
    H64      Y    -0.00054   0.00052  -0.00080
    H64      Z    -0.00068   0.00069  -0.00104
    H65      X    -0.00062   0.00060  -0.00034
    H65      Y     0.00047  -0.00046   0.00024
    H65      Z    -0.00045   0.00051  -0.00026
    H66      X     0.00002  -0.00006  -0.00003
    H66      Y    -0.00041  -0.00013  -0.00007
    H66      Z     0.00089   0.00021   0.00012
    H67      X    -0.00003   0.00001   0.00000
    H67      Y    -0.00012   0.00001   0.00001
    H67      Z     0.00013  -0.00005  -0.00003
    H68      X     0.00028  -0.00020   0.00011
    H68      Y     0.00019   0.00005   0.00005
    H68      Z     0.00021  -0.00013   0.00008
    H69      X    -0.00044   0.00037  -0.00007
    H69      Y     0.00017  -0.00014   0.00003
    H69      Z     0.00019  -0.00015   0.00003
    H70      X     0.00014   0.00001   0.00000
    H70      Y     0.00040  -0.00007   0.00011
    H70      Z     0.00066   0.00013  -0.00011
    H71      X     0.00133   0.00020  -0.00001
    H71      Y    -0.00014  -0.00002  -0.00002
    H71      Z    -0.00095  -0.00011  -0.00001
    H72      X    -0.00099  -0.00001  -0.00008
    H72      Y    -0.00878  -0.00016   0.00004
    H72      Z    -0.00112  -0.00006   0.00008
    H73      X    -0.00001  -0.00001   0.00002
    H73      Y     0.00000  -0.00002   0.00002
    H73      Z    -0.00001  -0.00001  -0.00007
    H74      X     0.00017  -0.00030   0.00023
    H74      Y    -0.00009   0.00019  -0.00011
    H74      Z     0.00013  -0.00023   0.00017
    H75      X    -0.00001   0.00007   0.00000
    H75      Y     0.00003  -0.00002  -0.00008
    H75      Z     0.00000   0.00002  -0.00004
    H76      X    -0.00005  -0.00003  -0.00002
    H76      Y    -0.00004  -0.00006  -0.00002
    H76      Z     0.00019   0.00010   0.00005
    H77      X    -0.00001  -0.00004   0.00018
    H77      Y     0.00000   0.00000   0.00005
    H77      Z     0.00001   0.00013  -0.00041
    H78      X     0.00010  -0.00017   0.00026
    H78      Y    -0.00008   0.00014  -0.00019
    H78      Z     0.00006  -0.00014   0.00018
    H79      X    -0.00008  -0.00011   0.00068
    H79      Y    -0.00004  -0.00011   0.00049
    H79      Z    -0.00001  -0.00001   0.00004
    H92      X    -0.00003  -0.00006  -0.00002
    H92      Y    -0.00002  -0.00001  -0.00002
    H92      Z    -0.00000  -0.00005   0.00000
    H81      X     0.00001  -0.00000   0.00000
    H81      Y     0.00000  -0.00008  -0.00017
    H81      Z     0.00001  -0.00002   0.00001
    H94      X     0.00002  -0.00002   0.00002
    H94      Y     0.00005  -0.00005   0.00003
    H94      Z    -0.00017   0.00016  -0.00010
    H95      X    -0.00013   0.00002  -0.00005
    H95      Y    -0.00004   0.00000  -0.00000
    H95      Z    -0.00015   0.00005  -0.00009
    H84      X    -0.00003  -0.00008   0.00000
    H84      Y    -0.00002  -0.00002  -0.00000
    H84      Z    -0.00001  -0.00006   0.00002
    H85      X    -0.00000   0.00001   0.00010
    H85      Y    -0.00001   0.00001  -0.00007
    H85      Z     0.00001  -0.00001  -0.00003
    H86      X     0.00004  -0.00003   0.00004
    H86      Y     0.00011  -0.00008   0.00010
    H86      Z    -0.00025   0.00018  -0.00023
    H87      X    -0.00006  -0.00530  -0.00004
    H87      Y    -0.00018  -0.01262  -0.00008
    H87      Z     0.00010   0.00515   0.00005
    H88      X    -0.00019  -0.01214   0.00012
    H88      Y    -0.00003  -0.00264   0.00003
    H88      Z    -0.00004  -0.00223   0.00003
    H89      X    -0.00005   0.00590   0.00002
    H89      Y     0.00010  -0.00945  -0.00002
    H89      Z     0.00003  -0.00182  -0.00000
    H90      X     0.00000   0.00298   0.00000
    H90      Y     0.00000   0.00415   0.00001
    H90      Z    -0.00002  -0.01232  -0.00002
    H91      X     0.00005  -0.00897   0.00010
    H91      Y     0.00000   0.00184  -0.00001
    H91      Z     0.00003  -0.00780   0.00008
    H104     X    -0.00001   0.00742  -0.00003
    H104     Y     0.00002  -0.00486   0.00003
    H104     Z     0.00001  -0.00508   0.00003
    C105     X     0.00002  -0.00000  -0.00009
    C105     Y    -0.00000  -0.00002   0.00015
    C105     Z    -0.00003  -0.00001   0.00006
    C106     X     0.00009  -0.00001  -0.00008
    C106     Y    -0.00002  -0.00001   0.00006
    C106     Z     0.00002  -0.00002   0.00000
    C107     X     0.00033   0.00000  -0.00003
    C107     Y    -0.00018  -0.00000   0.00082
    C107     Z    -0.00014  -0.00002  -0.00075
    C108     X    -0.00006   0.00000   0.00055
    C108     Y    -0.00006  -0.00000   0.00076
    C108     Z     0.00011  -0.00002  -0.00096
    H109     X     0.00004  -0.00003   0.00006
    H109     Y    -0.00000   0.00014  -0.00026
    H109     Z    -0.00007   0.00022  -0.00058
    H110     X    -0.00069   0.00013   0.00020
    H110     Y    -0.00036   0.00006   0.00019
    H110     Z    -0.00012   0.00001   0.00003
    H111     X    -0.00052   0.00001   0.00116
    H111     Y     0.00058  -0.00002  -0.00127
    H111     Z    -0.00015  -0.00001   0.00046
    H112     X     0.00013  -0.00005  -0.00012
    H112     Y    -0.00026   0.00014   0.00083
    H112     Z    -0.00036   0.00017   0.00099
    H113     X     0.00016  -0.00002  -0.00219
    H113     Y     0.00073  -0.00008  -0.00781
    H113     Z    -0.00100   0.00009   0.01155
    H114     X     0.00015   0.00003  -0.00413
    H114     Y     0.00020   0.00000  -0.00307
    H114     Z     0.00000  -0.00000  -0.00056
    H115     X    -0.00027  -0.00001   0.00000
    H115     Y     0.00073   0.00010   0.00015
    H115     Z     0.00076   0.00016  -0.00037
    H116     X    -0.00323   0.00001   0.00337
    H116     Y     0.00271  -0.00002  -0.00268
    H116     Z    -0.00083  -0.00001   0.00044
    H117     X    -0.00057  -0.00002  -0.00304
    H117     Y    -0.00131  -0.00006  -0.00757
    H117     Z     0.00204   0.00005   0.00941
  
  Number of imaginary frequencies:   0
   
  Writing vibrational animation data to L_Ar_OtBu_PL344.vib
  Writing IR vibrational spectrum data to L_Ar_OtBu_PL344_vib.spm
  rotational symmetry number:  1

  rotational temperatures (K):      0.003140      0.002726      0.002153
   
  The Quasi-Harmonic approximation will be applied to compute
  vibrational constributions to thermodynamic properties.
  Frequencies will be adjusted to a minimum value of  100.00 cm^-1.

  vibrational temperatures:
       mode:      1        2        3        4        5        6
  temp. (K):   143.88   143.88   143.88   143.88   143.88   143.88
   
       mode:      7        8        9       10       11       12
  temp. (K):   143.88   143.88   143.88   143.88   143.88   143.88
   
       mode:     13       14       15       16       17       18
  temp. (K):   143.88   143.88   143.88   143.88   143.88   143.88
   
       mode:     19       20       21       22       23       24
  temp. (K):   143.88   150.01   152.62   159.47   169.32   176.56
   
       mode:     25       26       27       28       29       30
  temp. (K):   185.48   190.49   201.46   209.27   223.19   225.09
   
       mode:     31       32       33       34       35       36
  temp. (K):   231.78   242.57   259.23   262.49   271.35   274.88
   
       mode:     37       38       39       40       41       42
  temp. (K):   286.84   297.59   302.17   326.01   345.35   350.74
   
       mode:     43       44       45       46       47       48
  temp. (K):   354.39   361.54   367.26   369.45   376.07   378.79
   
       mode:     49       50       51       52       53       54
  temp. (K):   381.42   384.88   386.48   396.49   411.05   419.68
   
       mode:     55       56       57       58       59       60
  temp. (K):   427.71   430.30   438.76   450.55   460.99   464.68
   
       mode:     61       62       63       64       65       66
  temp. (K):   472.79   482.97   484.58   494.72   507.68   533.10
   
       mode:     67       68       69       70       71       72
  temp. (K):   538.42   546.97   553.32   554.11   584.82   586.51
   
       mode:     73       74       75       76       77       78
  temp. (K):   589.40   593.58   609.81   618.61   633.52   647.99
   
       mode:     79       80       81       82       83       84
  temp. (K):   650.03   655.61   667.24   677.23   680.92   688.37
   
       mode:     85       86       87       88       89       90
  temp. (K):   698.31   712.60   729.53   754.84   764.71   771.50
   
       mode:     91       92       93       94       95       96
  temp. (K):   798.26   813.35   837.25   838.48   849.73   889.86
   
       mode:     97       98       99      100      101      102
  temp. (K):   914.09   915.06   917.65   927.97   958.47   975.82
   
       mode:    103      104      105      106      107      108
  temp. (K):  1026.64  1044.61  1064.32  1090.38  1116.68  1119.81
   
       mode:    109      110      111      112      113      114
  temp. (K):  1139.25  1167.29  1168.94  1179.51  1188.42  1195.51
   
       mode:    115      116      117      118      119      120
  temp. (K):  1204.21  1206.59  1213.19  1216.85  1219.74  1243.43
   
       mode:    121      122      123      124      125      126
  temp. (K):  1261.31  1267.96  1297.69  1306.28  1311.71  1314.39
   
       mode:    127      128      129      130      131      132
  temp. (K):  1316.66  1318.89  1322.25  1326.38  1328.05  1332.38
   
       mode:    133      134      135      136      137      138
  temp. (K):  1343.80  1365.20  1367.83  1369.13  1369.89  1374.12
   
       mode:    139      140      141      142      143      144
  temp. (K):  1374.98  1379.46  1391.37  1403.82  1407.27  1416.43
   
       mode:    145      146      147      148      149      150
  temp. (K):  1418.71  1422.70  1432.80  1478.80  1481.70  1487.98
   
       mode:    151      152      153      154      155      156
  temp. (K):  1514.76  1515.70  1518.06  1529.06  1531.97  1553.52
   
       mode:    157      158      159      160      161      162
  temp. (K):  1559.07  1562.77  1578.49  1583.94  1596.96  1603.48
   
       mode:    163      164      165      166      167      168
  temp. (K):  1607.64  1610.16  1618.22  1620.40  1632.83  1638.41
   
       mode:    169      170      171      172      173      174
  temp. (K):  1645.15  1646.86  1654.09  1655.91  1664.68  1677.57
   
       mode:    175      176      177      178      179      180
  temp. (K):  1701.40  1704.59  1716.58  1721.06  1722.23  1742.32
   
       mode:    181      182      183      184      185      186
  temp. (K):  1746.84  1753.11  1755.20  1762.82  1769.65  1780.31
   
       mode:    187      188      189      190      191      192
  temp. (K):  1785.12  1800.26  1805.21  1810.81  1818.51  1841.22
   
       mode:    193      194      195      196      197      198
  temp. (K):  1867.51  1871.93  1873.87  1882.10  1885.74  1888.92
   
       mode:    199      200      201      202      203      204
  temp. (K):  1893.22  1896.28  1898.49  1898.96  1910.65  1928.64
   
       mode:    205      206      207      208      209      210
  temp. (K):  1932.30  1932.99  1938.56  1943.40  1947.89  1966.18
   
       mode:    211      212      213      214      215      216
  temp. (K):  1967.58  1973.94  1976.33  1980.89  1996.53  1997.67
   
       mode:    217      218      219      220      221      222
  temp. (K):  2010.31  2014.10  2014.68  2017.34  2019.10  2019.90
   
       mode:    223      224      225      226      227      228
  temp. (K):  2021.61  2025.34  2026.90  2028.66  2047.52  2047.75
   
       mode:    229      230      231      232      233      234
  temp. (K):  2051.88  2053.32  2056.21  2075.80  2077.14  2082.74
   
       mode:    235      236      237      238      239      240
  temp. (K):  2101.68  2126.24  2130.56  2151.87  2157.96  2161.65
   
       mode:    241      242      243      244      245      246
  temp. (K):  2163.57  2167.18  2167.28  2171.47  2173.12  2173.92
   
       mode:    247      248      249      250      251      252
  temp. (K):  2175.15  2176.26  2177.69  2180.12  2181.81  2183.06
   
       mode:    253      254      255      256      257      258
  temp. (K):  2184.31  2185.20  2186.32  2186.88  2188.35  2189.72
   
       mode:    259      260      261      262      263      264
  temp. (K):  2190.38  2192.13  2196.80  2198.68  2199.88  2202.45
   
       mode:    265      266      267      268      269      270
  temp. (K):  2203.10  2205.11  2205.35  2206.96  2209.75  2212.68
   
       mode:    271      272      273      274      275      276
  temp. (K):  2216.74  2220.93  2225.01  2318.58  2357.52  2363.82
   
       mode:    277      278      279      280      281      282
  temp. (K):  2375.84  2377.67  2408.71  4343.62  4347.40  4351.49
   
       mode:    283      284      285      286      287      288
  temp. (K):  4353.89  4354.32  4355.84  4361.22  4367.10  4372.22
   
       mode:    289      290      291      292      293      294
  temp. (K):  4373.42  4374.06  4376.41  4376.60  4377.47  4380.09
   
       mode:    295      296      297      298      299      300
  temp. (K):  4381.45  4381.78  4387.02  4388.43  4397.94  4411.08
   
       mode:    301      302      303      304      305      306
  temp. (K):  4416.70  4426.21  4430.38  4434.42  4436.08  4440.90
   
       mode:    307      308      309      310      311      312
  temp. (K):  4441.30  4446.30  4449.93  4451.74  4455.93  4461.86
   
       mode:    313      314      315      316      317      318
  temp. (K):  4466.63  4474.58  4477.45  4480.10  4480.69  4483.12
   
       mode:    319      320      321      322      323      324
  temp. (K):  4490.66  4491.19  4493.35  4500.19  4503.42  4503.67
   
       mode:    325      326      327      328      329      330
  temp. (K):  4505.12  4508.78  4510.60  4515.48  4516.43  4519.05
   
       mode:    331      332      333      334      335      336
  temp. (K):  4528.85  4534.51  4540.43  4553.42  4555.29  4580.25
   
       mode:    337      338      339      340      341      342
  temp. (K):  4586.41  4587.15  4610.43  4612.71  4617.89  4632.91
   
       mode:    343      344      345
  temp. (K):  4645.73  4653.96  4660.60
   
   
  Thermodynamic properties calculated assuming an ideal gas

  In the table below, the units for temperature
  are kelvins, the units for U, H, and G are
  kcal/mol and the units for Cv and S are cal/(mol K)

  The zero point energy (ZPE):    649.475 kcal/mol
  is not included in U, H, or G in the table below
  
 
  =============================================================================
  Thermodynamic properties for P = 1.00E+00 atm, calculated at   1 temperatures


  T =   298.15 K, P = 1.00E+00 atm
   
                  U         Cv          S          H          G        ln(Q)
              =========  =========  =========  =========  =========  =========
  trans.          0.889      2.981     45.955      1.481    -12.220   20.62537
  rot.            0.889      2.981     38.797      0.889    -10.679   18.02358
  vib.           31.907    207.931    194.365     31.907    -26.043   43.95603
  elec.           0.000      0.000      0.000      0.000      0.000    0.00000
  ----------------------------------------------------------------------------
  total          33.684    213.892    279.118     34.277    -48.942   82.60498
   
   Total internal energy, Utot(SCFE + ZPE + U):   -2546.527944 hartrees
   Total enthalpy, Htot (Utot + nRT), with n=1:   -2546.527000 hartrees
    Total Gibbs free energy, Gtot (Htot - T*S):   -2546.659618 hartrees
   
  end of program freq
   
 Time(freq)  user:       0.572  user+sys:       0.572  wallclock:       1.304
  
  start of program post
  
  Writing input files for PBF
  end of program post
   
 Time(post)  user:       0.296  user+sys:       0.296  wallclock:       0.458

 Total cpu seconds     user:  271319.532   user+sys:  271319.532
  
 Total elapsed time:    178973 seconds

Job L_Ar_OtBu_PL344 completed on bp1-compute052.data.bp.acrc.priv at Sat May 10 11:57:23 2025
