Job L_Ar_OtBu_N_Ar_trans_PL344_3_freq started on bp1-compute083.data.bp.acrc.priv at Fri Nov 21 12:41:39 2025
jobid: bp1-compute083-0-69205dc5

  +--------------------------------------------------------------------+
  |  Jaguar version 12.5, release 138                                  |
  |                                                                    |
  |  Copyright Schrodinger, Inc.                                       |
  |  All Rights Reserved.                                              |
  |                                                                    |
  |  The following have contributed to Jaguar (listed alphabetically): |
  |  Ty Balduf, Mike Beachy, Chandler Bennett, Art Bochevarov,         |
  |  Dale Braden, Yixiang Cao, Alan Chien, Chris Cortis,               |
  |  Rich Friesner, Jim Furness, Bill Goddard, Hod Greeley,            |
  |  Tom Hughes, Leif Jacobson, Jean-Marc Langlois, Daniel Levine,     |
  |  Rob Murphy, Dean Philipp, Tom Pollard, Murco Ringnalda,           |
  |  Daniel Mainz, Pablo Videla, Mark Watson, Haoyu Yu.                |
  |                                                                    |
  |  Use of this program should be acknowledged in publications as:    |
  |                                                                    |
  |  Jaguar, version 12.5, Schrodinger, Inc., New York, NY, 2024.      |
  |                                                                    |
  |  A. D. Bochevarov, E. Harder, T. F. Hughes, J. R. Greenwood,       |
  |  D. A. Braden, D. M. Philipp, D. Rinaldo, M. D. Halls,             |
  |  J. Zhang, R. A. Friesner, "Jaguar: A High-Performance Quantum     |
  |  Chemistry Software Program with Strengths in Life and Materials   |
  |  Sciences", Int. J. Quantum Chem., 2013, 113(18), 2110-2142.       |
  +--------------------------------------------------------------------+
  
  start of program pre
  
  Job name: L_Ar_OtBu_N_Ar_trans_PL344_3_freq
  Executables used: /software/local/apps/schrodinger2024-3/jaguar-v12.5/bin/Linux-x86_64
  Temporary files : /tmp/ar21627/L_Ar_OtBu_N_Ar_trans_PL344_3_freq#bp1-compute083-0-69205dc5
  Basis file : using default basis file from /software/local/apps/schrodinger2024-3
  Maestro file (input):  L_Ar_OtBu_N_Ar_trans_PL344_3_freq.mae
  Maestro file (output): L_Ar_OtBu_N_Ar_trans_PL344_3_freq.01.mae
  
 Contents of input file: &gen and (if present) &atomic sections only
 ----------------Contents start----------------
&gen
dftname=b3pw91-d3
basis=6-31G*
numd=5
ip11=2
iaccg=3
isolv=2
ifreq=1
solvent=benzene
&
&atomic
atom basis
Pd2 lacv3p*
&
 -----------------Contents end-----------------
 
  PS calculation requested. Using PS version of 6-31g*
  basis set:               non_standard                    
  net molecular charge:    0
  multiplicity:            1
  
  Using up to   4 threads per process
  
  This run will use ECP on 1 atom
  number of basis functions....          979
  
 Input geometry:
                                   angstroms
  atom               x                 y                 z
  P1           -0.3558858518      0.0409598826     -0.1575338966 
  Pd2           0.5431526845      0.1667154769      2.2122659585 
  O2           -0.9055025153      1.4627686817      2.7786802676 
  C3            3.3468523034     -0.1405701988      6.0680997053 
  C4            2.1889752064     -0.9013767022      5.9983967814 
  C5            1.3320069491     -0.7127086117      4.9108242498 
  C6            1.6173600429      0.2136707271      3.9002825678 
  C7            2.7959621804      0.9653016647      4.0147132804 
  C8            3.6629505016      0.7993460766      5.0979661621 
  F9            4.1937140041     -0.3229353324      7.1100603426 
  H10           1.9674153476     -1.6207100983      6.7833928301 
  H11           3.0686500077      1.6762461077      3.2383165190 
  H12           4.5834567307      1.3711359509      5.1850412193 
  H13           0.4212502419     -1.2975082708      4.8472870710 
  C14           1.2153670574      0.1926028709     -1.2234216494 
  C15           1.2829862003      1.2641991065     -2.3226950424 
  C16           2.7145558229      1.3548546511     -2.8712560503 
  C17           3.1972007413      0.0100922944     -3.4241477322 
  C18           3.0631700380     -1.1016846513     -2.3793982479 
  C19           1.6368616206     -1.1593037932     -1.8246038154 
  C20          -1.4013841631      1.5226523976     -0.5969344716 
  C21          -2.8540451343      1.3312644176     -0.1378004125 
  C22          -3.7068806301      2.5076907534     -0.6259787126 
  C23          -3.1546945135      3.8482873781     -0.1323730379 
  C24          -1.6678752491      4.0124298975     -0.4695712923 
  C25          -0.8410635686      2.8160225391      0.0153675815 
  C26          -1.2718738680     -1.4060308404     -0.9289471605 
  C27          -1.5413315253     -2.5969204324     -0.2223200257 
  C28          -2.3666613550     -3.5913748653     -0.8079179539 
  C29          -2.8834466500     -3.4310725905     -2.0867135906 
  C30          -2.5686530442     -2.2872133796     -2.8149604107 
  C31          -1.7675746359     -1.2977368067     -2.2568761843 
  C32          -1.0287321068     -2.9248565423      1.1493784843 
  C33          -1.7566841047     -2.5115598369      2.2834848060 
  C34          -1.3176772436     -2.8966488976      3.5547499329 
  C35          -0.1869105529     -3.6885103203      3.7437669372 
  C36           0.4941374272     -4.1204051916      2.5996961333 
  C37           0.0894136345     -3.7782754177      1.3053145378 
  C38           0.8106873019     -4.4151013207      0.1184773241 
  C39           0.3920064604     -5.8910064751      0.0012908007 
  C40           2.3449792866     -4.3440856473      0.1714430810 
  C41          -4.2349411041     -2.7701135889      2.2183491488 
  C42          -3.0732702774     -1.7651789582      2.1395126213 
  C43          -3.2601566869     -0.6361029996      3.1523442514 
  C44          -0.4989609867     -3.5620565712      6.2912838407 
  C45           0.3253848132     -4.1021051092      5.1200907288 
  C46           0.4336028921     -5.6318499575      5.2382909256 
  O47          -1.3932107036     -0.1940758250     -2.9598151740 
  C48          -1.9722707806      0.0516333684     -4.2283210013 
  O49          -2.6170072421     -4.6833339453     -0.0299952113 
  C50          -3.4548948531     -5.7016368025     -0.5450674769 
  H51           1.9631690531      0.4818585271     -0.4696279910 
  H52           0.9759387782      2.2430771708     -1.9435567276 
  H53           0.5913805995      0.9990982055     -3.1286514405 
  H54           2.7655843313      2.1274482465     -3.6499725448 
  H55           3.3893678678      1.6817730696     -2.0644898184 
  H56           4.2362759014      0.0873092232     -3.7704315191 
  H57           2.5900868727     -0.2533379203     -4.3035835563 
  H58           3.3341210066     -2.0733414077     -2.8129279685 
  H59           3.7677676476     -0.9225468129     -1.5536137504 
  H60           1.5478559072     -1.9793117237     -1.1016013233 
  H61           0.9353247252     -1.4136514916     -2.6294853396 
  H62          -1.3918267983      1.6071999985     -1.6876636658 
  H63          -2.8684372233      1.2736292744      0.9587712313 
  H64          -3.2657394737      0.3916240765     -0.5275941779 
  H65          -3.7215717580      2.4998808209     -1.7274706612 
  H66          -4.7471490693      2.3816390977     -0.2965705579 
  H67          -3.2821933260      3.8979458861      0.9562164847 
  H68          -3.7352214576      4.6795778858     -0.5552078252 
  H69          -1.5519084090      4.1183231174     -1.5603801305 
  H70          -1.2810776998      4.9382186783     -0.0220807439 
  H71          -0.8841111404      2.7153887572      1.1043752572 
  H72           0.2152087178      2.9624186239     -0.2438957014 
  H73          -3.5193893386     -4.1857688268     -2.5373515956 
  H74          -2.9531983740     -2.1870566269     -3.8245190494 
  H75          -1.8861295918     -2.5618236179      4.4158525530 
  H76           1.3659104068     -4.7604831637      2.7186998644 
  H77           0.4777759956     -3.9023355255     -0.7921528799 
  H78           0.7635432792     -6.4613511089      0.8622598942 
  H79          -0.6948884657     -5.9851937017     -0.0241192654 
  H80           0.8108233883     -6.3395683282     -0.9084585194 
  H81           2.7663998491     -4.8502743993     -0.7055279370 
  H82           2.7417156591     -3.3254090477      0.1759599676 
  H83           2.7461062947     -4.8476948231      1.0586408260 
  H84          -4.2753574716     -3.2251784425      3.2170026962 
  H85          -5.1916888940     -2.2631318972      2.0385767840 
  H86          -4.1181011547     -3.5752102062      1.4875799059 
  H87          -3.0905062586     -1.3131769784      1.1423441668 
  H88          -3.3514255655     -1.0180327815      4.1780285813 
  H89          -4.1889895820     -0.0950492612      2.9287129443 
  H90          -2.4261203212      0.0732117956      3.1070680576 
  H91          -1.5184594966     -3.9680912568      6.2785523921 
  H92          -0.5716703707     -2.4695425001      6.2891216840 
  H93          -0.0373950149     -3.8595186730      7.2400289865 
  H94           1.3410486025     -3.6854404439      5.2139685347 
  H95          -0.5574790499     -6.0924665277      5.1440353345 
  H96           1.0776383950     -6.0658853968      4.4662378419 
  H97           0.8485647193     -5.9125606498      6.2143386931 
  H98          -1.5821707333      1.0198793193     -4.5505052023 
  H99          -3.0676753170      0.1042724518     -4.1676626387 
  H100         -1.6826510872     -0.7133378934     -4.9618058069 
  H101         -3.5204734891     -6.4580909428      0.2403577826 
  H102         -4.4622772066     -5.3224930705     -0.7667779497 
  H103         -3.0298769391     -6.1563494983     -1.4511786456 
  C104         -0.9811530703      2.3804252371      3.8413375648 
  C105         -1.0656195544      1.6997194042      5.2175021220 
  C106          0.1841396574      3.3798942347      3.8279031345 
  C107         -2.2939608330      3.1533982904      3.6119230882 
  H108         -0.1290961894      1.1967098767      5.4619500810 
  H109         -1.2788184711      2.4330742468      6.0072625830 
  H110         -1.8654091233      0.9509474324      5.2158420124 
  H111         -2.2359621149      3.7291556296      2.6832124583 
  H112         -3.1322012897      2.4525112383      3.5289446362 
  H113         -2.4986367078      3.8506701513      4.4348832908 
  H114          0.0486943947      4.1658246236      4.5837874447 
  H115          1.1250949171      2.8641015584      4.0332254366 
  H116          0.2583492667      3.8552851881      2.8424018223 
  N118          1.9392417168     -1.3617218313      1.6368967931 
  H119          1.4761302703     -2.1819988805      2.0345933469 
  H120          1.8563940979     -1.4632360825      0.6302126558 
  C121          3.3219796417     -1.3535932981      2.0060746333 
  C122          6.0045534892     -1.3051629069      2.7722904353 
  C123          3.7645184575     -2.1712700560      3.0441305022 
  C124          4.2189819956     -0.5138220369      1.3469983088 
  C125          5.5584880905     -0.4966631061      1.7267272897 
  C126          5.1012369793     -2.1386285105      3.4303241992 
  H127          3.0510073129     -2.8002152211      3.5691559133 
  H128          3.8601843287      0.1494205163      0.5642530896 
  H129          6.2535784572      0.1635957342      1.2123216859 
  H130          5.4355294370     -2.7631527915      4.2556836616 
  H131          7.0481344598     -1.2791022621      3.0777245039 
   
  principal moments of inertia:
        amu*angstrom^2:              9412.60818             11927.56864             12958.22620
                g*cm^2:          1.56300016E-36          1.98061912E-36          2.15176382E-36
   
  rotational constants:
               cm^(-1):      0.00179096      0.00141333      0.00130092
                   GHz:      0.05369171      0.04237066      0.03900063
   
  Molecular weight:     903.43 amu
   
  Stoichiometry: PdC51PNH73O3F
  Molecular Point Group: C1      
  Point Group used: C1
  
 
  bond lengths (angstroms):
 
 P1      -Pd2     :   2.537723      P1      -C14     :   1.904717
 P1      -C20     :   1.865892      P1      -C26     :   1.878269
 Pd2     -O2      :   2.024643      Pd2     -C6      :   2.001381
 Pd2     -N118    :   2.148542      O2      -C104    :   1.406079
 C3      -C4      :   1.387215      C3      -C8      :   1.387271
 C3      -F9      :   1.355033      C4      -C5      :   1.397428
 C4      -H10     :   1.087542      C5      -C6      :   1.400286
 C5      -H13     :   1.084207      C6      -C7      :   1.402550
 C7      -C8      :   1.397371      C7      -H11     :   1.087471
 C8      -H12     :   1.087133      C14     -C15     :   1.536650
 C14     -C19     :   1.538418      C14     -H51     :   1.100491
 C15     -C16     :   1.535750      C15     -H52     :   1.093721
 C15     -H53     :   1.094606      C16     -C17     :   1.531999
 C16     -H54     :   1.098137      C16     -H55     :   1.101417
 C17     -C18     :   1.531507      C17     -H56     :   1.097976
 C17     -H57     :   1.100632      C18     -C19     :   1.531494
 C18     -H58     :   1.097943      C18     -H59     :   1.100213
 C19     -H60     :   1.096844      C19     -H61     :   1.097580
 C20     -C21     :   1.535466      C20     -C25     :   1.536776
 C20     -H62     :   1.094043      C21     -C22     :   1.532849
 C21     -H63     :   1.098180      C21     -H64     :   1.097431
 C22     -C23     :   1.531586      C22     -H65     :   1.101618
 C22     -H66     :   1.098434      C23     -C24     :   1.533387
 C23     -H67     :   1.097155      C23     -H68     :   1.098565
 C24     -C25     :   1.533028      C24     -H69     :   1.102055
 C24     -H70     :   1.098610      C25     -H71     :   1.094494
 C25     -H72     :   1.097434      C26     -C27     :   1.410726
 C26     -C31     :   1.421563      C27     -C28     :   1.418814
 C27     -C32     :   1.500619      C28     -C29     :   1.388554
 C28     -O49     :   1.363896      C29     -C30     :   1.392068
 C29     -H73     :   1.084926      C30     -C31     :   1.390053
 C30     -H74     :   1.084949      C31     -O47     :   1.361007
 C32     -C33     :   1.409583      C32     -C37     :   1.415235
 C33     -C34     :   1.398977      C33     -C42     :   1.520267
 C34     -C35     :   1.393343      C34     -H75     :   1.084778
 C35     -C36     :   1.399735      C35     -C45     :   1.525705
 C36     -C37     :   1.398670      C36     -H76     :   1.088049
 C37     -C38     :   1.527863      C38     -C39     :   1.538611
 C38     -C40     :   1.536848      C38     -H77     :   1.096816
 C39     -H78     :   1.097543      C39     -H79     :   1.091264
 C39     -H80     :   1.097387      C40     -H81     :   1.096768
 C40     -H82     :   1.093216      C40     -H83     :   1.096196
 C41     -C42     :   1.538047      C41     -H84     :   1.098192
 C41     -H85     :   1.097595      C41     -H86     :   1.093552
 C42     -C43     :   1.528256      C42     -H87     :   1.094965
 C43     -H88     :   1.098284      C43     -H89     :   1.097944
 C43     -H90     :   1.095807      C44     -C45     :   1.530651
 C44     -H91     :   1.097453      C44     -H92     :   1.094933
 C44     -H93     :   1.096195      C45     -C46     :   1.538116
 C45     -H94     :   1.101815      C46     -H95     :   1.096948
 C46     -H96     :   1.095096      C46     -H97     :   1.097115
 O47     -C48     :   1.415906      C48     -H98     :   1.092466
 C48     -H99     :   1.098345      C48     -H100    :   1.098663
 O49     -C50     :   1.415732      C50     -H101    :   1.092436
 C50     -H102    :   1.098965      C50     -H103    :   1.099291
 C104    -C105    :   1.537636      C104    -C106    :   1.535261
 C104    -C107    :   1.540644      C105    -H108    :   1.090802
 C105    -H109    :   1.098629      C105    -H110    :   1.095594
 C106    -H114    :   1.098814      C106    -H115    :   1.092518
 C106    -H116    :   1.096684      C107    -H111    :   1.094241
 C107    -H112    :   1.095799      C107    -H113    :   1.097881
 N118    -H119    :   1.022492      N118    -H120    :   1.015176
 N118    -C121    :   1.431196      C121    -C123    :   1.393555
 C121    -C124    :   1.394350      C122    -C125    :   1.394937
 C122    -C126    :   1.394150      C122    -H131    :   1.087672
 C123    -C126    :   1.391771      C123    -H127    :   1.086426
 C124    -C125    :   1.392395      C124    -H128    :   1.086884
 C125    -H129    :   1.087982      C126    -H130    :   1.087658
 
  bond angles:
 
 C14     -P1      -Pd2     : 103.084203  C20     -P1      -Pd2     : 112.275607
 C20     -P1      -C14     : 105.498964  C26     -P1      -Pd2     : 126.475070
 C26     -P1      -C14     : 103.520875  C26     -P1      -C20     : 103.991932
 O2      -Pd2     -P1      :  92.262961  C6      -Pd2     -P1      : 168.216649
 C6      -Pd2     -O2      :  97.646634  N118    -Pd2     -P1      :  86.839783
 N118    -Pd2     -O2      : 174.401833  N118    -Pd2     -C6      :  83.903388
 C104    -O2      -Pd2     : 131.890176  C8      -C3      -C4      : 121.778291
 F9      -C3      -C4      : 119.109417  F9      -C3      -C8      : 119.112057
 C5      -C4      -C3      : 118.484644  H10     -C4      -C3      : 119.770861
 H10     -C4      -C5      : 121.744054  C6      -C5      -C4      : 121.735635
 H13     -C5      -C4      : 119.204377  H13     -C5      -C6      : 119.059941
 C5      -C6      -Pd2     : 118.932304  C7      -C6      -Pd2     : 122.168976
 C7      -C6      -C5      : 117.833201  C8      -C7      -C6      : 121.397818
 H11     -C7      -C6      : 120.186636  H11     -C7      -C8      : 118.393283
 C7      -C8      -C3      : 118.764113  H12     -C8      -C3      : 119.556032
 H12     -C8      -C7      : 121.666403  C15     -C14     -P1      : 119.481613
 C19     -C14     -P1      : 112.007777  C19     -C14     -C15     : 108.735859
 H51     -C14     -P1      : 101.429996  H51     -C14     -C15     : 106.069526
 H51     -C14     -C19     : 108.208249  C16     -C15     -C14     : 109.737436
 H52     -C15     -C14     : 111.333626  H52     -C15     -C16     : 109.431617
 H53     -C15     -C14     : 109.270610  H53     -C15     -C16     : 109.892967
 H53     -C15     -H52     : 107.134622  C17     -C16     -C15     : 111.762815
 H54     -C16     -C15     : 109.763716  H54     -C16     -C17     : 110.304177
 H55     -C16     -C15     : 109.086647  H55     -C16     -C17     : 109.382318
 H55     -C16     -H54     : 106.387100  C18     -C17     -C16     : 111.312287
 H56     -C17     -C16     : 110.501453  H56     -C17     -C18     : 110.427322
 H57     -C17     -C16     : 108.946144  H57     -C17     -C18     : 108.847527
 H57     -C17     -H56     : 106.669212  C19     -C18     -C17     : 110.850939
 H58     -C18     -C17     : 110.577994  H58     -C18     -C19     : 109.851002
 H59     -C18     -C17     : 109.741140  H59     -C18     -C19     : 109.308942
 H59     -C18     -H58     : 106.404493  C18     -C19     -C14     : 111.325326
 H60     -C19     -C14     : 112.157177  H60     -C19     -C18     : 110.028554
 H61     -C19     -C14     : 108.366246  H61     -C19     -C18     : 109.775464
 H61     -C19     -H60     : 104.967379  C21     -C20     -P1      : 111.143663
 C25     -C20     -P1      : 111.727611  C25     -C20     -C21     : 109.311798
 H62     -C20     -P1      : 106.932825  H62     -C20     -C21     : 108.421848
 H62     -C20     -C25     : 109.208164  C22     -C21     -C20     : 109.601451
 H63     -C21     -C20     : 108.513118  H63     -C21     -C22     : 110.548435
 H64     -C21     -C20     : 110.819674  H64     -C21     -C22     : 109.590090
 H64     -C21     -H63     : 107.747007  C23     -C22     -C21     : 111.625713
 H65     -C22     -C21     : 108.688339  H65     -C22     -C23     : 109.466810
 H66     -C22     -C21     : 110.079935  H66     -C22     -C23     : 110.196278
 H66     -C22     -H65     : 106.643230  C24     -C23     -C22     : 111.864236
 H67     -C23     -C22     : 108.511084  H67     -C23     -C24     : 109.027488
 H68     -C23     -C22     : 110.351470  H68     -C23     -C24     : 110.288665
 H68     -C23     -H67     : 106.632611  C25     -C24     -C23     : 111.706417
 H69     -C24     -C23     : 109.267431  H69     -C24     -C25     : 109.349828
 H70     -C24     -C23     : 110.000026  H70     -C24     -C25     : 109.810982
 H70     -C24     -H69     : 106.567653  C24     -C25     -C20     : 109.519784
 H71     -C25     -C20     : 107.740882  H71     -C25     -C24     : 111.425153
 H72     -C25     -C20     : 111.658568  H72     -C25     -C24     : 109.893078
 H72     -C25     -H71     : 106.569728  C27     -C26     -P1      : 122.531533
 C31     -C26     -P1      : 119.670954  C31     -C26     -C27     : 117.749560
 C28     -C27     -C26     : 119.739167  C32     -C27     -C26     : 125.246584
 C32     -C27     -C28     : 115.012280  C29     -C28     -C27     : 121.043727
 O49     -C28     -C27     : 115.627452  O49     -C28     -C29     : 123.325695
 C30     -C29     -C28     : 119.504285  H73     -C29     -C28     : 121.357706
 H73     -C29     -C30     : 119.133597  C31     -C30     -C29     : 120.344175
 H74     -C30     -C29     : 118.848370  H74     -C30     -C31     : 120.806009
 C30     -C31     -C26     : 121.450849  O47     -C31     -C26     : 116.636284
 O47     -C31     -C30     : 121.896601  C33     -C32     -C27     : 119.667311
 C37     -C32     -C27     : 120.157785  C37     -C32     -C33     : 119.747533
 C34     -C33     -C32     : 119.232330  C42     -C33     -C32     : 120.997232
 C42     -C33     -C34     : 119.535448  C35     -C34     -C33     : 122.301860
 H75     -C34     -C33     : 118.159927  H75     -C34     -C35     : 119.538184
 C36     -C35     -C34     : 117.344613  C45     -C35     -C34     : 123.294057
 C45     -C35     -C36     : 119.360577  C37     -C36     -C35     : 122.693011
 H76     -C36     -C35     : 118.813564  H76     -C36     -C37     : 118.487277
 C36     -C37     -C32     : 118.560973  C38     -C37     -C32     : 122.597534
 C38     -C37     -C36     : 118.706123  C39     -C38     -C37     : 109.300615
 C40     -C38     -C37     : 115.167342  C40     -C38     -C39     : 108.579129
 H77     -C38     -C37     : 107.865635  H77     -C38     -C39     : 107.615146
 H77     -C38     -C40     : 108.061115  H78     -C39     -C38     : 110.280399
 H79     -C39     -C38     : 110.829782  H79     -C39     -H78     : 108.093939
 H80     -C39     -C38     : 110.571973  H80     -C39     -H78     : 107.981795
 H80     -C39     -H79     : 108.998161  H81     -C40     -C38     : 109.555257
 H82     -C40     -C38     : 113.922735  H82     -C40     -H81     : 107.092757
 H83     -C40     -C38     : 111.837911  H83     -C40     -H81     : 107.128205
 H83     -C40     -H82     : 106.974689  H84     -C41     -C42     : 110.191256
 H85     -C41     -C42     : 110.375636  H85     -C41     -H84     : 107.954606
 H86     -C41     -C42     : 111.474290  H86     -C41     -H84     : 107.850997
 H86     -C41     -H85     : 108.889546  C41     -C42     -C33     : 109.175502
 C43     -C42     -C33     : 113.944906  C43     -C42     -C41     : 110.878494
 H87     -C42     -C33     : 107.610334  H87     -C42     -C41     : 107.728536
 H87     -C42     -C43     : 107.256070  H88     -C43     -C42     : 111.849592
 H89     -C43     -C42     : 109.422805  H89     -C43     -H88     : 106.934841
 H90     -C43     -C42     : 110.963114  H90     -C43     -H88     : 109.082853
 H90     -C43     -H89     : 108.450666  H91     -C44     -C45     : 111.154884
 H92     -C44     -C45     : 112.724196  H92     -C44     -H91     : 107.905645
 H93     -C44     -C45     : 109.860408  H93     -C44     -H91     : 107.505432
 H93     -C44     -H92     : 107.483371  C44     -C45     -C35     : 114.441489
 C46     -C45     -C35     : 111.257296  C46     -C45     -C44     : 109.268392
 H94     -C45     -C35     : 106.491242  H94     -C45     -C44     : 107.327374
 H94     -C45     -C46     : 107.740123  H95     -C46     -C45     : 110.331513
 H96     -C46     -C45     : 112.419645  H96     -C46     -H95     : 107.718727
 H97     -C46     -C45     : 110.453594  H97     -C46     -H95     : 108.103349
 H97     -C46     -H96     : 107.659604  C48     -O47     -C31     : 119.402822
 H98     -C48     -O47     : 105.782184  H99     -C48     -O47     : 111.512982
 H99     -C48     -H98     : 109.264965  H100    -C48     -O47     : 111.683453
 H100    -C48     -H98     : 109.031243  H100    -C48     -H99     : 109.459795
 C50     -O49     -C28     : 118.488846  H101    -C50     -O49     : 105.784162
 H102    -C50     -O49     : 111.577985  H102    -C50     -H101    : 109.202957
 H103    -C50     -O49     : 111.628432  H103    -C50     -H101    : 109.232725
 H103    -C50     -H102    : 109.318789  C105    -C104    -O2      : 112.981345
 C106    -C104    -O2      : 112.174033  C106    -C104    -C105    : 109.738395
 C107    -C104    -O2      : 105.114449  C107    -C104    -C105    : 107.973190
 C107    -C104    -C106    : 108.593087  H108    -C105    -C104    : 110.949598
 H109    -C105    -C104    : 111.009518  H109    -C105    -H108    : 108.260253
 H110    -C105    -C104    : 109.956172  H110    -C105    -H108    : 108.175980
 H110    -C105    -H109    : 108.399059  H114    -C106    -C104    : 111.472604
 H115    -C106    -C104    : 110.165145  H115    -C106    -H114    : 108.334445
 H116    -C106    -C104    : 109.963645  H116    -C106    -H114    : 108.449036
 H116    -C106    -H115    : 108.376139  H111    -C107    -C104    : 110.194474
 H112    -C107    -C104    : 110.011113  H112    -C107    -H111    : 108.229372
 H113    -C107    -C104    : 111.462037  H113    -C107    -H111    : 108.173934
 H113    -C107    -H112    : 108.685590  H119    -N118    -Pd2     :  99.917727
 H120    -N118    -Pd2     : 106.478932  H120    -N118    -H119    : 105.575714
 C121    -N118    -Pd2     : 123.687660  C121    -N118    -H119    : 109.987547
 C121    -N118    -H120    : 109.585113  C123    -C121    -N118    : 119.710848
 C124    -C121    -N118    : 120.200282  C124    -C121    -C123    : 120.078672
 C126    -C122    -C125    : 119.543784  H131    -C122    -C125    : 120.225658
 H131    -C122    -C126    : 120.228436  C126    -C123    -C121    : 119.863484
 H127    -C123    -C121    : 119.412922  H127    -C123    -C126    : 120.680695
 C125    -C124    -C121    : 119.827597  H128    -C124    -C121    : 119.706655
 H128    -C124    -C125    : 120.428306  C124    -C125    -C122    : 120.324573
 H129    -C125    -C122    : 120.120986  H129    -C125    -C124    : 119.547775
 C123    -C126    -C122    : 120.354837  H130    -C126    -C122    : 120.152070
 H130    -C126    -C123    : 119.491363
 
  torsional angles:
 
 P1      -Pd2     -O2      -C104    :-158.622021
 P1      -Pd2     -C6      -C5      :-122.244923
 P1      -Pd2     -C6      -C7      :  45.690269
 P1      -Pd2     -N118    -H119    :-100.100670
 P1      -Pd2     -N118    -H120    :   9.531676
 P1      -Pd2     -N118    -C121    : 137.651256
 P1      -C14     -C15     -C16     : 170.173965
 P1      -C14     -C15     -H52     :  48.870170
 P1      -C14     -C15     -H53     : -69.268786
 P1      -C14     -C19     -C18     :-165.920956
 P1      -C14     -C19     -H60     : -42.144513
 P1      -C14     -C19     -H61     :  73.261338
 P1      -C20     -C21     -C22     :-174.925922
 P1      -C20     -C21     -H63     :  64.265675
 P1      -C20     -C21     -H64     : -53.848759
 P1      -C20     -C25     -C24     : 175.385037
 P1      -C20     -C25     -H71     : -63.260746
 P1      -C20     -C25     -H72     :  53.432442
 P1      -C26     -C27     -C28     : 172.877516
 P1      -C26     -C27     -C32     :  -6.585506
 P1      -C26     -C31     -C30     :-173.208589
 P1      -C26     -C31     -O47     :   8.231971
 Pd2     -P1      -C14     -C15     :-126.678039
 Pd2     -P1      -C14     -C19     : 104.530384
 Pd2     -P1      -C14     -H51     : -10.656205
 Pd2     -P1      -C20     -C21     : -85.039950
 Pd2     -P1      -C20     -C25     :  37.359405
 Pd2     -P1      -C20     -H62     : 156.801115
 Pd2     -P1      -C26     -C27     :  -0.294729
 Pd2     -P1      -C26     -C31     : 177.128811
 Pd2     -O2      -C104    -C105    : -68.210859
 Pd2     -O2      -C104    -C106    :  56.468503
 Pd2     -O2      -C104    -C107    : 174.290514
 Pd2     -C6      -C5      -C4      : 167.946619
 Pd2     -C6      -C5      -H13     : -12.131935
 Pd2     -C6      -C7      -C8      :-167.975344
 Pd2     -C6      -C7      -H11     :  10.280644
 Pd2     -N118    -C121    -C123    : 101.928243
 Pd2     -N118    -C121    -C124    : -76.911069
 O2      -Pd2     -P1      -C14     : 134.890566
 O2      -Pd2     -P1      -C20     :  21.831873
 O2      -Pd2     -P1      -C26     :-107.053961
 O2      -Pd2     -C6      -C5      :  90.754242
 O2      -Pd2     -C6      -C7      :-101.310566
 O2      -Pd2     -N118    -H119    : -19.185437
 O2      -Pd2     -N118    -H120    :  90.446910
 O2      -Pd2     -N118    -C121    :-141.433510
 O2      -C104    -C105    -H108    :  68.337221
 O2      -C104    -C105    -H109    :-171.235593
 O2      -C104    -C105    -H110    : -51.291035
 O2      -C104    -C106    -H114    : 172.904397
 O2      -C104    -C106    -H115    : -66.793886
 O2      -C104    -C106    -H116    :  52.593417
 O2      -C104    -C107    -H111    : -64.441816
 O2      -C104    -C107    -H112    :  54.812301
 O2      -C104    -C107    -H113    : 175.445687
 C3      -C4      -C5      -C6      :   0.232929
 C3      -C4      -C5      -H13     :-179.688406
 C3      -C8      -C7      -C6      :   0.604010
 C3      -C8      -C7      -H11     :-177.682344
 C4      -C3      -C8      -C7      :  -0.904004
 C4      -C3      -C8      -H12     :-179.592361
 C4      -C5      -C6      -C7      :  -0.511943
 C5      -C4      -C3      -C8      :   0.493812
 C5      -C4      -C3      -F9      :-179.328331
 C5      -C6      -Pd2     -N118    : -83.827332
 C5      -C6      -C7      -C8      :   0.086098
 C5      -C6      -C7      -H11     : 178.342086
 C6      -Pd2     -P1      -C14     : -12.411836
 C6      -Pd2     -P1      -C20     :-125.470529
 C6      -Pd2     -P1      -C26     : 105.643637
 C6      -Pd2     -O2      -C104    :  14.987378
 C6      -Pd2     -N118    -H119    :  87.200680
 C6      -Pd2     -N118    -H120    :-163.166974
 C6      -Pd2     -N118    -C121    : -35.047394
 C6      -C5      -C4      -H10     : 179.990708
 C6      -C7      -C8      -H12     : 179.263459
 C7      -C6      -Pd2     -N118    :  84.107860
 C7      -C6      -C5      -H13     : 179.409503
 C7      -C8      -C3      -F9      : 178.918135
 C8      -C3      -C4      -H10     :-179.268881
 F9      -C3      -C4      -H10     :   0.908975
 F9      -C3      -C8      -H12     :   0.229778
 H10     -C4      -C5      -H13     :   0.069373
 H11     -C7      -C8      -H12     :   0.977105
 C14     -P1      -Pd2     -N118    : -50.641485
 C14     -P1      -C20     -C21     : 163.400679
 C14     -P1      -C20     -C25     : -74.199966
 C14     -P1      -C20     -H62     :  45.241744
 C14     -P1      -C26     -C27     : 117.566226
 C14     -P1      -C26     -C31     : -65.010235
 C14     -C15     -C16     -C17     :  57.840090
 C14     -C15     -C16     -H54     :-179.444764
 C14     -C15     -C16     -H55     : -63.241884
 C14     -C19     -C18     -C17     : -56.788540
 C14     -C19     -C18     -H58     :-179.294278
 C14     -C19     -C18     -H59     :  64.304886
 C15     -C14     -P1      -C20     :  -8.753917
 C15     -C14     -P1      -C26     : 100.196129
 C15     -C14     -C19     -C18     :  59.842904
 C15     -C14     -C19     -H60     :-176.380652
 C15     -C14     -C19     -H61     : -60.974802
 C15     -C16     -C17     -C18     : -54.465754
 C15     -C16     -C17     -H56     :-177.548346
 C15     -C16     -C17     -H57     :  65.570641
 C16     -C15     -C14     -C19     : -59.561710
 C16     -C15     -C14     -H51     :  56.610886
 C16     -C17     -C18     -C19     :  53.284410
 C16     -C17     -C18     -H58     : 175.366602
 C16     -C17     -C18     -H59     : -67.553598
 C17     -C16     -C15     -H52     :-179.719463
 C17     -C16     -C15     -H53     : -62.339330
 C17     -C18     -C19     -H60     : 178.234739
 C17     -C18     -C19     -H61     :  63.198840
 C18     -C17     -C16     -H54     :-176.872277
 C18     -C17     -C16     -H55     :  66.444501
 C18     -C19     -C14     -H51     : -54.945621
 C19     -C14     -P1      -C20     :-137.545494
 C19     -C14     -P1      -C26     : -28.595448
 C19     -C14     -C15     -H52     : 179.134495
 C19     -C14     -C15     -H53     :  60.995539
 C19     -C18     -C17     -H56     : 176.409432
 C19     -C18     -C17     -H57     : -66.810302
 C20     -P1      -Pd2     -N118    :-163.700178
 C20     -P1      -C14     -H51     : 107.267918
 C20     -P1      -C26     -C27     :-132.364230
 C20     -P1      -C26     -C31     :  45.059310
 C20     -C21     -C22     -C23     : -56.961247
 C20     -C21     -C22     -H65     :  63.872475
 C20     -C21     -C22     -H66     :-179.667705
 C20     -C25     -C24     -C23     :  56.792888
 C20     -C25     -C24     -H69     : -64.286065
 C20     -C25     -C24     -H70     : 179.115413
 C21     -C20     -P1      -C26     :  54.789770
 C21     -C20     -C25     -C24     : -61.172978
 C21     -C20     -C25     -H71     :  60.181239
 C21     -C20     -C25     -H72     : 176.874427
 C21     -C22     -C23     -C24     :  52.556086
 C21     -C22     -C23     -H67     : -67.762474
 C21     -C22     -C23     -H68     : 175.741227
 C22     -C21     -C20     -C25     :  61.287207
 C22     -C21     -C20     -H62     : -57.670649
 C22     -C23     -C24     -C25     : -52.539106
 C22     -C23     -C24     -H69     :  68.587698
 C22     -C23     -C24     -H70     :-174.753215
 C23     -C22     -C21     -H63     :  62.605991
 C23     -C22     -C21     -H64     :-178.778401
 C23     -C24     -C25     -H71     : -62.311518
 C23     -C24     -C25     -H72     : 179.797766
 C24     -C23     -C22     -H65     : -67.822502
 C24     -C23     -C22     -H66     : 175.196020
 C24     -C25     -C20     -H62     :  57.295789
 C25     -C20     -P1      -C26     : 177.189126
 C25     -C20     -C21     -H63     : -59.521196
 C25     -C20     -C21     -H64     :-177.635630
 C25     -C24     -C23     -H67     :  67.477539
 C25     -C24     -C23     -H68     :-175.759784
 C26     -P1      -Pd2     -N118    :  67.413989
 C26     -P1      -C14     -H51     :-143.782036
 C26     -P1      -C20     -H62     : -63.369164
 C26     -C27     -C28     -C29     :   1.992816
 C26     -C27     -C28     -O49     :-177.384705
 C26     -C27     -C32     -C33     :  87.455100
 C26     -C27     -C32     -C37     :-100.065159
 C26     -C31     -C30     -C29     :  -1.339684
 C26     -C31     -C30     -H74     : 179.102766
 C26     -C31     -O47     -C48     :-172.811725
 C27     -C26     -C31     -C30     :   4.336996
 C27     -C26     -C31     -O47     :-174.222443
 C27     -C28     -C29     -C30     :   1.103585
 C27     -C28     -C29     -H73     :-179.667269
 C27     -C28     -O49     -C50     : 178.813916
 C27     -C32     -C33     -C34     : 175.857584
 C27     -C32     -C33     -C42     :   1.453032
 C27     -C32     -C37     -C36     :-176.545397
 C27     -C32     -C37     -C38     :  -0.833049
 C28     -C27     -C26     -C31     :  -4.592951
 C28     -C27     -C32     -C33     : -92.030395
 C28     -C27     -C32     -C37     :  80.449346
 C28     -C29     -C30     -C31     :  -1.433874
 C28     -C29     -C30     -H74     : 178.132261
 C28     -O49     -C50     -H101    :-179.466414
 C28     -O49     -C50     -H102    : -60.823074
 C28     -O49     -C50     -H103    :  61.827258
 C29     -C28     -C27     -C32     :-178.491103
 C29     -C28     -O49     -C50     :  -0.547800
 C29     -C30     -C31     -O47     : 177.143609
 C30     -C29     -C28     -O49     :-179.568113
 C30     -C31     -O47     -C48     :   8.635769
 C31     -C26     -C27     -C32     : 175.944027
 C31     -C30     -C29     -H73     : 179.319725
 C31     -O47     -C48     -H98     : 175.462705
 C31     -O47     -C48     -H99     :  56.780984
 C31     -O47     -C48     -H100    : -66.044954
 C32     -C27     -C28     -O49     :   2.131377
 C32     -C33     -C34     -C35     :  -0.576961
 C32     -C33     -C34     -H75     : 179.485563
 C32     -C33     -C42     -C41     :  94.999876
 C32     -C33     -C42     -C43     :-140.438990
 C32     -C33     -C42     -H87     : -21.655991
 C32     -C37     -C36     -C35     :   2.116995
 C32     -C37     -C36     -H76     :-178.796450
 C32     -C37     -C38     -C39     :-102.861921
 C32     -C37     -C38     -C40     : 134.621258
 C32     -C37     -C38     -H77     :  13.867002
 C33     -C32     -C37     -C36     :  -4.071701
 C33     -C32     -C37     -C38     : 171.640647
 C33     -C34     -C35     -C36     :  -1.383551
 C33     -C34     -C35     -C45     : 178.934921
 C33     -C42     -C41     -H84     :  65.255247
 C33     -C42     -C41     -H85     :-175.603820
 C33     -C42     -C41     -H86     : -54.457425
 C33     -C42     -C43     -H88     : -66.499944
 C33     -C42     -C43     -H89     : 175.195972
 C33     -C42     -C43     -H90     :  55.561570
 C34     -C33     -C32     -C37     :   3.346700
 C34     -C33     -C42     -C41     : -79.387929
 C34     -C33     -C42     -C43     :  45.173206
 C34     -C33     -C42     -H87     : 163.956204
 C34     -C35     -C36     -C37     :   0.591073
 C34     -C35     -C36     -H76     :-178.492635
 C34     -C35     -C45     -C44     :  -0.621012
 C34     -C35     -C45     -C46     : 123.833354
 C34     -C35     -C45     -H94     :-119.028258
 C35     -C34     -C33     -C42     : 173.910545
 C35     -C36     -C37     -C38     :-173.764886
 C35     -C45     -C44     -H91     :  64.058022
 C35     -C45     -C44     -H92     : -57.239079
 C35     -C45     -C44     -H93     :-177.079631
 C35     -C45     -C46     -H95     : -63.273265
 C35     -C45     -C46     -H96     :  56.990161
 C35     -C45     -C46     -H97     : 177.263122
 C36     -C35     -C34     -H75     : 178.553091
 C36     -C35     -C45     -C44     : 179.703565
 C36     -C35     -C45     -C46     : -55.842069
 C36     -C35     -C45     -H94     :  61.296319
 C36     -C37     -C38     -C39     :  72.844482
 C36     -C37     -C38     -C40     : -49.672340
 C36     -C37     -C38     -H77     :-170.426596
 C37     -C32     -C33     -C42     :-171.057852
 C37     -C36     -C35     -C45     :-179.714358
 C37     -C38     -C39     -H78     : -66.886817
 C37     -C38     -C39     -H79     :  52.772626
 C37     -C38     -C39     -H80     : 173.757978
 C37     -C38     -C40     -H81     : 178.418940
 C37     -C38     -C40     -H82     : -61.660564
 C37     -C38     -C40     -H83     :  59.795946
 C38     -C37     -C36     -H76     :   5.321669
 C39     -C38     -C40     -H81     :  55.516610
 C39     -C38     -C40     -H82     : 175.437106
 C39     -C38     -C40     -H83     : -63.106384
 C40     -C38     -C39     -H78     :  59.488855
 C40     -C38     -C39     -H79     : 179.148297
 C40     -C38     -C39     -H80     : -59.866350
 C41     -C42     -C43     -H88     :  57.144398
 C41     -C42     -C43     -H89     : -61.159687
 C41     -C42     -C43     -H90     : 179.205911
 C42     -C33     -C34     -H75     :  -6.026930
 C43     -C42     -C41     -H84     : -61.082412
 C43     -C42     -C41     -H85     :  58.058521
 C43     -C42     -C41     -H86     : 179.204916
 C44     -C45     -C46     -H95     :  64.049923
 C44     -C45     -C46     -H96     :-175.686651
 C44     -C45     -C46     -H97     : -55.413690
 C45     -C35     -C34     -H75     :  -1.128438
 C45     -C35     -C36     -H76     :   1.201934
 C46     -C45     -C44     -H91     : -61.445855
 C46     -C45     -C44     -H92     : 177.257044
 C46     -C45     -C44     -H93     :  57.416492
 O47     -C31     -C30     -H74     :  -2.413942
 O49     -C28     -C29     -H73     :  -0.338968
 H51     -C14     -C15     -H52     : -64.692910
 H51     -C14     -C15     -H53     : 177.168134
 H51     -C14     -C19     -H60     :  68.830822
 H51     -C14     -C19     -H61     :-175.763327
 H52     -C15     -C16     -H54     : -57.004318
 H52     -C15     -C16     -H55     :  59.198562
 H53     -C15     -C16     -H54     :  60.375816
 H53     -C15     -C16     -H55     : 176.578695
 H54     -C16     -C17     -H56     :  60.045132
 H54     -C16     -C17     -H57     : -56.835882
 H55     -C16     -C17     -H56     : -56.638090
 H55     -C16     -C17     -H57     :-173.519103
 H56     -C17     -C18     -H58     : -61.508376
 H56     -C17     -C18     -H59     :  55.571424
 H57     -C17     -C18     -H58     :  55.271889
 H57     -C17     -C18     -H59     : 172.351690
 H58     -C18     -C19     -H60     :  55.729001
 H58     -C18     -C19     -H61     : -59.306898
 H59     -C18     -C19     -H60     : -60.671835
 H59     -C18     -C19     -H61     :-175.707734
 H62     -C20     -C21     -H63     :-178.479052
 H62     -C20     -C21     -H64     :  63.406514
 H62     -C20     -C25     -H71     : 178.650007
 H62     -C20     -C25     -H72     : -64.656806
 H63     -C21     -C22     -H65     :-176.560287
 H63     -C21     -C22     -H66     : -60.100467
 H64     -C21     -C22     -H65     : -57.944679
 H64     -C21     -C22     -H66     :  58.515141
 H65     -C22     -C23     -H67     : 171.858938
 H65     -C22     -C23     -H68     :  55.362639
 H66     -C22     -C23     -H67     :  54.877460
 H66     -C22     -C23     -H68     : -61.618839
 H67     -C23     -C24     -H69     :-171.395656
 H67     -C23     -C24     -H70     : -54.736569
 H68     -C23     -C24     -H69     : -54.632980
 H68     -C23     -C24     -H70     :  62.026108
 H69     -C24     -C25     -H71     : 176.609529
 H69     -C24     -C25     -H72     :  58.718813
 H70     -C24     -C25     -H71     :  60.011006
 H70     -C24     -C25     -H72     : -57.879710
 H73     -C29     -C30     -H74     :  -1.114140
 H77     -C38     -C39     -H78     : 176.225674
 H77     -C38     -C39     -H79     : -64.114883
 H77     -C38     -C39     -H80     :  56.870469
 H77     -C38     -C40     -H81     : -60.933540
 H77     -C38     -C40     -H82     :  58.986957
 H77     -C38     -C40     -H83     :-179.556533
 H84     -C41     -C42     -H87     :-178.164018
 H85     -C41     -C42     -H87     : -59.023085
 H86     -C41     -C42     -H87     :  62.123310
 H87     -C42     -C43     -H88     : 174.515403
 H87     -C42     -C43     -H89     :  56.211318
 H87     -C42     -C43     -H90     : -63.423084
 H91     -C44     -C45     -H94     :-178.009389
 H92     -C44     -C45     -H94     :  60.693510
 H93     -C44     -C45     -H94     : -59.147042
 H94     -C45     -C46     -H95     :-179.648874
 H94     -C45     -C46     -H96     : -59.385447
 H94     -C45     -C46     -H97     :  60.887514
 C104    -O2      -Pd2     -N118    : 120.724670
 C105    -C104    -C106    -H114    : -60.642200
 C105    -C104    -C106    -H115    :  59.659518
 C105    -C104    -C106    -H116    : 179.046821
 C105    -C104    -C107    -H111    : 174.708488
 C105    -C104    -C107    -H112    : -66.037395
 C105    -C104    -C107    -H113    :  54.595991
 C106    -C104    -C105    -H108    : -57.657933
 C106    -C104    -C105    -H109    :  62.769253
 C106    -C104    -C105    -H110    :-177.286189
 C106    -C104    -C107    -H111    :  55.778931
 C106    -C104    -C107    -H112    : 175.033048
 C106    -C104    -C107    -H113    : -64.333566
 C107    -C104    -C105    -H108    :-175.856267
 C107    -C104    -C105    -H109    : -55.429081
 C107    -C104    -C105    -H110    :  64.515477
 C107    -C104    -C106    -H114    :  57.171036
 C107    -C104    -C106    -H115    : 177.472753
 C107    -C104    -C106    -H116    : -63.139944
 N118    -C121    -C123    -C126    :-178.225019
 N118    -C121    -C123    -H127    :  -0.590597
 N118    -C121    -C124    -C125    : 178.981579
 N118    -C121    -C124    -H128    :   1.197317
 H119    -N118    -C121    -C123    : -15.634599
 H119    -N118    -C121    -C124    : 165.526089
 H120    -N118    -C121    -C123    :-131.272162
 H120    -N118    -C121    -C124    :  49.888526
 C121    -C123    -C126    -C122    :  -0.864624
 C121    -C123    -C126    -H130    : 178.657594
 C121    -C124    -C125    -C122    :  -0.666418
 C121    -C124    -C125    -H129    :-179.728454
 C122    -C125    -C124    -H128    : 177.101620
 C122    -C126    -C123    -H127    :-178.468555
 C123    -C121    -C124    -C125    :   0.146559
 C123    -C121    -C124    -H128    :-177.637702
 C123    -C126    -C122    -C125    :   0.347645
 C123    -C126    -C122    -H131    : 179.818915
 C124    -C121    -C123    -C126    :   0.615722
 C124    -C121    -C123    -H127    : 178.250144
 C124    -C125    -C122    -C126    :   0.420108
 C124    -C125    -C122    -H131    :-179.051178
 C125    -C122    -C126    -H130    :-179.171405
 C126    -C122    -C125    -H129    : 179.476747
 H127    -C123    -C126    -H130    :   1.053663
 H128    -C124    -C125    -H129    :  -1.960417
 H129    -C125    -C122    -H131    :   0.005462
 H130    -C126    -C122    -H131    :   0.299866
 
  nuclear repulsion energy.......         10685.638495767 hartrees
  
  Detected an organometallic with only one TM atom. 
  
  Oxidation state on metal       2 is     2
  Formal multiplet on metal      2 is     1
  Formal charge on ligand        3 is    -1
  Formal multiplet on ligand     3 is     1
  Formal charge on ligand        4 is    -1
  Formal multiplet on ligand     4 is     1
  
 
  Will use High-Quality Initial guess for organometallics
       including d-d repulsion (iguess=30)
 
 Non-default options chosen:
   SCF calculation type: DFT(b3pw91-d3)              
   DFT=Becke_3_Parameter/HF+Slater+Becke88+PW91+PW-GGAIIC (B3PW91-D3)
   Solvation energy will be computed using PBF
     -solute cavity energy will not be included
     -surface area terms will not be included
   Vibrational frequencies and related properties will be computed
      from analytic second derivatives
   IR intensities will be computed
   Thermochemical properties will be computed
   Solvent: benzene                                                         
   Internal dielectric constant:    1.000
   Continuum dielectric constant:   2.283
   Solvent probe molecule radius:   2.600
  
 Non-default print settings:
     11=  2
  
 Temporary integer options set:
     21= -1  73=  2
  
  atom       vdw   vdw2    cov     mass  grid  daf  charge   basis
  P1        2.147  2.074  1.060   30.974    Y    Y      Y    ps_6-31g*
  Pd2       1.450  1.450  1.280  105.903    Y    Y      Y    lacv3p*
  O2        1.702  1.600  0.730   15.995    Y    Y      Y    ps_6-31g*
  C3        1.949  1.900  0.770   12.000    Y    Y      Y    ps_6-31g*
  C4        1.949  1.900  0.770   12.000    Y    Y      Y    ps_6-31g*
  C5        1.949  1.900  0.770   12.000    Y    Y      Y    ps_6-31g*
  C6        1.949  1.900  0.770   12.000    Y    Y      Y    ps_6-31g*
  C7        1.949  1.900  0.770   12.000    Y    Y      Y    ps_6-31g*
  C8        1.949  1.900  0.770   12.000    Y    Y      Y    ps_6-31g*
  F9        1.736  1.682  0.720   18.998    Y    Y      Y    ps_6-31g*
  H10       1.597  1.150  0.320    1.008    Y    Y      Y    ps_6-31g*
  H11       1.597  1.150  0.320    1.008    Y    Y      Y    ps_6-31g*
  H12       1.597  1.150  0.320    1.008    Y    Y      Y    ps_6-31g*
  H13       1.597  1.150  0.320    1.008    Y    Y      Y    ps_6-31g*
  C14       1.949  1.900  0.770   12.000    Y    Y      Y    ps_6-31g*
  C15       1.949  1.900  0.770   12.000    Y    Y      Y    ps_6-31g*
  C16       1.949  1.900  0.770   12.000    Y    Y      Y    ps_6-31g*
  C17       1.949  1.900  0.770   12.000    Y    Y      Y    ps_6-31g*
  C18       1.949  1.900  0.770   12.000    Y    Y      Y    ps_6-31g*
  C19       1.949  1.900  0.770   12.000    Y    Y      Y    ps_6-31g*
  C20       1.949  1.900  0.770   12.000    Y    Y      Y    ps_6-31g*
  C21       1.949  1.900  0.770   12.000    Y    Y      Y    ps_6-31g*
  C22       1.949  1.900  0.770   12.000    Y    Y      Y    ps_6-31g*
  C23       1.949  1.900  0.770   12.000    Y    Y      Y    ps_6-31g*
  C24       1.949  1.900  0.770   12.000    Y    Y      Y    ps_6-31g*
  C25       1.949  1.900  0.770   12.000    Y    Y      Y    ps_6-31g*
  C26       1.949  1.900  0.770   12.000    Y    Y      Y    ps_6-31g*
  C27       1.949  1.900  0.770   12.000    Y    Y      Y    ps_6-31g*
  C28       1.949  1.900  0.770   12.000    Y    Y      Y    ps_6-31g*
  C29       1.949  1.900  0.770   12.000    Y    Y      Y    ps_6-31g*
  C30       1.949  1.900  0.770   12.000    Y    Y      Y    ps_6-31g*
  C31       1.949  1.900  0.770   12.000    Y    Y      Y    ps_6-31g*
  C32       1.949  1.900  0.770   12.000    Y    Y      Y    ps_6-31g*
  C33       1.949  1.900  0.770   12.000    Y    Y      Y    ps_6-31g*
  C34       1.949  1.900  0.770   12.000    Y    Y      Y    ps_6-31g*
  C35       1.949  1.900  0.770   12.000    Y    Y      Y    ps_6-31g*
  C36       1.949  1.900  0.770   12.000    Y    Y      Y    ps_6-31g*
  C37       1.949  1.900  0.770   12.000    Y    Y      Y    ps_6-31g*
  C38       1.949  1.900  0.770   12.000    Y    Y      Y    ps_6-31g*
  C39       1.949  1.900  0.770   12.000    Y    Y      Y    ps_6-31g*
  C40       1.949  1.900  0.770   12.000    Y    Y      Y    ps_6-31g*
  C41       1.949  1.900  0.770   12.000    Y    Y      Y    ps_6-31g*
  C42       1.949  1.900  0.770   12.000    Y    Y      Y    ps_6-31g*
  C43       1.949  1.900  0.770   12.000    Y    Y      Y    ps_6-31g*
  C44       1.949  1.900  0.770   12.000    Y    Y      Y    ps_6-31g*
  C45       1.949  1.900  0.770   12.000    Y    Y      Y    ps_6-31g*
  C46       1.949  1.900  0.770   12.000    Y    Y      Y    ps_6-31g*
  O47       1.702  1.600  0.730   15.995    Y    Y      Y    ps_6-31g*
  C48       1.949  1.900  0.770   12.000    Y    Y      Y    ps_6-31g*
  O49       1.702  1.600  0.730   15.995    Y    Y      Y    ps_6-31g*
  C50       1.949  1.900  0.770   12.000    Y    Y      Y    ps_6-31g*
  H51       1.597  1.150  0.320    1.008    Y    Y      Y    ps_6-31g*
  H52       1.597  1.150  0.320    1.008    Y    Y      Y    ps_6-31g*
  H53       1.597  1.150  0.320    1.008    Y    Y      Y    ps_6-31g*
  H54       1.597  1.150  0.320    1.008    Y    Y      Y    ps_6-31g*
  H55       1.597  1.150  0.320    1.008    Y    Y      Y    ps_6-31g*
  H56       1.597  1.150  0.320    1.008    Y    Y      Y    ps_6-31g*
  H57       1.597  1.150  0.320    1.008    Y    Y      Y    ps_6-31g*
  H58       1.597  1.150  0.320    1.008    Y    Y      Y    ps_6-31g*
  H59       1.597  1.150  0.320    1.008    Y    Y      Y    ps_6-31g*
  H60       1.597  1.150  0.320    1.008    Y    Y      Y    ps_6-31g*
  H61       1.597  1.150  0.320    1.008    Y    Y      Y    ps_6-31g*
  H62       1.597  1.150  0.320    1.008    Y    Y      Y    ps_6-31g*
  H63       1.597  1.150  0.320    1.008    Y    Y      Y    ps_6-31g*
  H64       1.597  1.150  0.320    1.008    Y    Y      Y    ps_6-31g*
  H65       1.597  1.150  0.320    1.008    Y    Y      Y    ps_6-31g*
  H66       1.597  1.150  0.320    1.008    Y    Y      Y    ps_6-31g*
  H67       1.597  1.150  0.320    1.008    Y    Y      Y    ps_6-31g*
  H68       1.597  1.150  0.320    1.008    Y    Y      Y    ps_6-31g*
  H69       1.597  1.150  0.320    1.008    Y    Y      Y    ps_6-31g*
  H70       1.597  1.150  0.320    1.008    Y    Y      Y    ps_6-31g*
  H71       1.597  1.150  0.320    1.008    Y    Y      Y    ps_6-31g*
  H72       1.597  1.150  0.320    1.008    Y    Y      Y    ps_6-31g*
  H73       1.597  1.150  0.320    1.008    Y    Y      Y    ps_6-31g*
  H74       1.597  1.150  0.320    1.008    Y    Y      Y    ps_6-31g*
  H75       1.597  1.150  0.320    1.008    Y    Y      Y    ps_6-31g*
  H76       1.597  1.150  0.320    1.008    Y    Y      Y    ps_6-31g*
  H77       1.597  1.150  0.320    1.008    Y    Y      Y    ps_6-31g*
  H78       1.597  1.150  0.320    1.008    Y    Y      Y    ps_6-31g*
  H79       1.597  1.150  0.320    1.008    Y    Y      Y    ps_6-31g*
  H80       1.597  1.150  0.320    1.008    Y    Y      Y    ps_6-31g*
  H81       1.597  1.150  0.320    1.008    Y    Y      Y    ps_6-31g*
  H82       1.597  1.150  0.320    1.008    Y    Y      Y    ps_6-31g*
  H83       1.597  1.150  0.320    1.008    Y    Y      Y    ps_6-31g*
  H84       1.597  1.150  0.320    1.008    Y    Y      Y    ps_6-31g*
  H85       1.597  1.150  0.320    1.008    Y    Y      Y    ps_6-31g*
  H86       1.597  1.150  0.320    1.008    Y    Y      Y    ps_6-31g*
  H87       1.597  1.150  0.320    1.008    Y    Y      Y    ps_6-31g*
  H88       1.597  1.150  0.320    1.008    Y    Y      Y    ps_6-31g*
  H89       1.597  1.150  0.320    1.008    Y    Y      Y    ps_6-31g*
  H90       1.597  1.150  0.320    1.008    Y    Y      Y    ps_6-31g*
  H91       1.597  1.150  0.320    1.008    Y    Y      Y    ps_6-31g*
  H92       1.597  1.150  0.320    1.008    Y    Y      Y    ps_6-31g*
  H93       1.597  1.150  0.320    1.008    Y    Y      Y    ps_6-31g*
  H94       1.597  1.150  0.320    1.008    Y    Y      Y    ps_6-31g*
  H95       1.597  1.150  0.320    1.008    Y    Y      Y    ps_6-31g*
  H96       1.597  1.150  0.320    1.008    Y    Y      Y    ps_6-31g*
  H97       1.597  1.150  0.320    1.008    Y    Y      Y    ps_6-31g*
  H98       1.597  1.150  0.320    1.008    Y    Y      Y    ps_6-31g*
  H99       1.597  1.150  0.320    1.008    Y    Y      Y    ps_6-31g*
  H100      1.597  1.150  0.320    1.008    Y    Y      Y    ps_6-31g*
  H101      1.597  1.150  0.320    1.008    Y    Y      Y    ps_6-31g*
  H102      1.597  1.150  0.320    1.008    Y    Y      Y    ps_6-31g*
  H103      1.597  1.150  0.320    1.008    Y    Y      Y    ps_6-31g*
  C104      1.949  1.900  0.770   12.000    Y    Y      Y    ps_6-31g*
  C105      1.949  1.900  0.770   12.000    Y    Y      Y    ps_6-31g*
  C106      1.949  1.900  0.770   12.000    Y    Y      Y    ps_6-31g*
  C107      1.949  1.900  0.770   12.000    Y    Y      Y    ps_6-31g*
  H108      1.597  1.150  0.320    1.008    Y    Y      Y    ps_6-31g*
  H109      1.597  1.150  0.320    1.008    Y    Y      Y    ps_6-31g*
  H110      1.597  1.150  0.320    1.008    Y    Y      Y    ps_6-31g*
  H111      1.597  1.150  0.320    1.008    Y    Y      Y    ps_6-31g*
  H112      1.597  1.150  0.320    1.008    Y    Y      Y    ps_6-31g*
  H113      1.597  1.150  0.320    1.008    Y    Y      Y    ps_6-31g*
  H114      1.597  1.150  0.320    1.008    Y    Y      Y    ps_6-31g*
  H115      1.597  1.150  0.320    1.008    Y    Y      Y    ps_6-31g*
  H116      1.597  1.150  0.320    1.008    Y    Y      Y    ps_6-31g*
  N118      1.831  1.600  0.750   14.003    Y    Y      Y    ps_6-31g*
  H119      1.597  1.150  0.320    1.008    Y    Y      Y    ps_6-31g*
  H120      1.597  1.150  0.320    1.008    Y    Y      Y    ps_6-31g*
  C121      1.949  1.900  0.770   12.000    Y    Y      Y    ps_6-31g*
  C122      1.949  1.900  0.770   12.000    Y    Y      Y    ps_6-31g*
  C123      1.949  1.900  0.770   12.000    Y    Y      Y    ps_6-31g*
  C124      1.949  1.900  0.770   12.000    Y    Y      Y    ps_6-31g*
  C125      1.949  1.900  0.770   12.000    Y    Y      Y    ps_6-31g*
  C126      1.949  1.900  0.770   12.000    Y    Y      Y    ps_6-31g*
  H127      1.597  1.150  0.320    1.008    Y    Y      Y    ps_6-31g*
  H128      1.597  1.150  0.320    1.008    Y    Y      Y    ps_6-31g*
  H129      1.597  1.150  0.320    1.008    Y    Y      Y    ps_6-31g*
  H130      1.597  1.150  0.320    1.008    Y    Y      Y    ps_6-31g*
  H131      1.597  1.150  0.320    1.008    Y    Y      Y    ps_6-31g*
 
  atom      formal  2spin      esp    mulk    frag
  P1           0       0        Y    0.000       0
  Pd2          2       0        Y    0.000       0
  O2          -1       0        Y    0.000       0
  C3          -1       0        Y    0.000       0
  N118         0       0        Y    0.000       0
  
  end of program pre
   
 Time(pre)  user:       2.240  user+sys:       2.240  wallclock:       1.363
  
  start of program onee
  
  smallest eigenvalue of S:    2.880E-04
  number of canonical orbitals.....          976
  end of program onee
   
 Time(onee)  user:      13.673  user+sys:      13.673  wallclock:       3.833
  
  start of program hfig
  
  initial wavefunction generated automatically from atomic wavefunctions
  Only one state below 0.010000
  Skip d-d repulsion considerations 
 
  Irreducible     Total no   No of occupied orbitals 
  representation  orbitals   Shell_1  Shell_2    ...
  No Symm          976        226
  ------------------------
  Orbital occupation/shell    1.000
 
  end of program hfig
   
 Time(hfig)  user:       5.185  user+sys:       5.185  wallclock:       2.332
  
  start of program probe
  
  end of program probe
   
 Time(probe)  user:       2.978  user+sys:       2.978  wallclock:       1.124
  
  start of program grid
  
   grid     grid set  grid #  grid sym
  ------    --------  ------  --------
  coarse        0        0        1
  medium        2        1        1
  fine          0        0        1
  ultrafine     4        2        1
  charge       -1        3        1
  gradient      4        2        1
  density       0        0        1
  DFT-fine    -11        4        1
  DFT-med.    -10        5        1
  DFT-grad    -12        6        1
  DFT-der2     -8        7        1
  DFT-cphf     -9        8        1
  LMP2-enrg     4        2        1
  LMP2-grad     2        1        1
  DFT-cphf2   -15        9        1
  PBF-dens      0        0        1
  plotting      0        0        1
  Rel-grad    -17        0        1
  
  number of gridpoints: 
     atom           P1         Pd2          O2          C3          C4          C5          C6
  grid # 1         617         349         117          80          93          95         100
  grid # 2         439         299         455         333         318         322         386
  grid # 3           9         223           8          27          13           6           6
  grid # 4        8714        8714        8714        8714        8714        8714        8714
  grid # 5        1192        1192        1192        1192        1192        1192        1192
  grid # 6        9132        9132        5922        5922        5922        5922        5922
  grid # 7       23034       32968       23382       13950       13950       13950       13950
  grid # 8         722        1150         774         748         748         748         748
  grid # 9         366        2198         416         394         394         394         394
   
  number of gridpoints: 
     atom           C7          C8          F9         H10         H11         H12         H13
  grid # 1          95          93         584         109         113         114         105
  grid # 2         321         320         566         448         446         463         419
  grid # 3           9          19         340         244         205         364          45
  grid # 4        8714        8714        8714        8714        8714        8714        8714
  grid # 5        1192        1192        1192        1192        1192        1192        1192
  grid # 6        5922        5922        5922        5922        5922        5922        5922
  grid # 7       13950       13950       23190       15206       15206       15206       15206
  grid # 8         748         748         770         786         786         786         786
  grid # 9         394         394         420         420         420         420         420
   
  number of gridpoints: 
     atom          C14         C15         C16         C17         C18         C19         C20
  grid # 1          82          92          92          92          92          91          79
  grid # 2         331         278         278         279         279         280         326
  grid # 3           6           6           6           6           6           6           6
  grid # 4        8714        8714        8714        8714        8714        8714        8714
  grid # 5        1192        1192        1192        1192        1192        1192        1192
  grid # 6        5922        5922        5922        5922        5922        5922        5922
  grid # 7       13950       13950       13950       13950       13950       13950       13950
  grid # 8         748         748         748         748         748         748         748
  grid # 9         394         394         394         394         394         394         394
   
  number of gridpoints: 
     atom          C21         C22         C23         C24         C25         C26         C27
  grid # 1          90          92          92          92          90          92          98
  grid # 2         277         279         281         282         279         387         348
  grid # 3           6           6           6           6           6           8           6
  grid # 4        8714        8714        8714        8714        8714        8714        8714
  grid # 5        1192        1192        1192        1192        1192        1192        1192
  grid # 6        5922        5922        5922        5922        5922        5922        5922
  grid # 7       13950       13950       13950       13950       13950       13950       13950
  grid # 8         748         748         748         748         748         748         748
  grid # 9         394         394         394         394         394         394         394
   
  number of gridpoints: 
     atom          C28         C29         C30         C31         C32         C33         C34
  grid # 1          92          96          95          92          99          98          94
  grid # 2         346         323         324         342         360         361         323
  grid # 3          14          33          29           9           8          10          17
  grid # 4        8714        8714        8714        8714        8714        8714        8714
  grid # 5        1192        1192        1192        1192        1192        1192        1192
  grid # 6        5922        5922        5922        5922        5922        5922        5922
  grid # 7       13950       13950       13950       13950       13950       13950       13950
  grid # 8         748         748         748         748         748         748         748
  grid # 9         394         394         394         394         394         394         394
   
  number of gridpoints: 
     atom          C35         C36         C37         C38         C39         C40         C41
  grid # 1          99          94          97          92          79          81          81
  grid # 2         359         324         354         305         246         235         241
  grid # 3          14          18          10           6           6           6           6
  grid # 4        8714        8714        8714        8714        8714        8714        8714
  grid # 5        1192        1192        1192        1192        1192        1192        1192
  grid # 6        5922        5922        5922        5922        5922        5922        5922
  grid # 7       13950       13950       13950       13950       13950       13950       13950
  grid # 8         748         748         748         748         748         748         748
  grid # 9         394         394         394         394         394         394         394
   
  number of gridpoints: 
     atom          C42         C43         C44         C45         C46         O47         C48
  grid # 1          90          81          79          92          80         113          74
  grid # 2         303         237         242         303         241         431         228
  grid # 3           6           6           6           6           6          12           6
  grid # 4        8714        8714        8714        8714        8714        8714        8714
  grid # 5        1192        1192        1192        1192        1192        1192        1192
  grid # 6        5922        5922        5922        5922        5922        5922        5922
  grid # 7       13950       13950       13950       13950       13950       23382       13950
  grid # 8         748         748         748         748         748         774         748
  grid # 9         394         394         394         394         394         416         394
   
  number of gridpoints: 
     atom          O49         C50         H51         H52         H53         H54         H55
  grid # 1         114          75          99         104         104         112         109
  grid # 2         436         223         417         425         425         456         445
  grid # 3          21           6          41         114          79         324         226
  grid # 4        8714        8714        8714        8714        8714        8714        8714
  grid # 5        1192        1192        1192        1192        1192        1192        1192
  grid # 6        5922        5922        5922        5922        5922        5922        5922
  grid # 7       23382       13950       15206       15206       15206       15206       15206
  grid # 8         774         748         786         786         786         786         786
  grid # 9         416         394         420         420         420         420         420
   
  number of gridpoints: 
     atom          H56         H57         H58         H59         H60         H61         H62
  grid # 1         112         110         111         106         100         106         100
  grid # 2         456         452         451         435         404         428         411
  grid # 3         327         255         280         130          24         123          42
  grid # 4        8714        8714        8714        8714        8714        8714        8714
  grid # 5        1192        1192        1192        1192        1192        1192        1192
  grid # 6        5922        5922        5922        5922        5922        5922        5922
  grid # 7       15206       15206       15206       15206       15206       15206       15206
  grid # 8         786         786         786         786         786         786         786
  grid # 9         420         420         420         420         420         420         420
   
  number of gridpoints: 
     atom          H63         H64         H65         H66         H67         H68         H69
  grid # 1         101         104         109         112         106         112         110
  grid # 2         421         433         444         457         430         456         447
  grid # 3          40         131         210         315         132         324         237
  grid # 4        8714        8714        8714        8714        8714        8714        8714
  grid # 5        1192        1192        1192        1192        1192        1192        1192
  grid # 6        5922        5922        5922        5922        5922        5922        5922
  grid # 7       15206       15206       15206       15206       15206       15206       15206
  grid # 8         786         786         786         786         786         786         786
  grid # 9         420         420         420         420         420         420         420
   
  number of gridpoints: 
     atom          H70         H71         H72         H73         H74         H75         H76
  grid # 1         111          97         102         111         111         103         103
  grid # 2         454         409         429         441         438         423         421
  grid # 3         290          14         135         249         243          75          68
  grid # 4        8714        8714        8714        8714        8714        8714        8714
  grid # 5        1192        1192        1192        1192        1192        1192        1192
  grid # 6        5922        5922        5922        5922        5922        5922        5922
  grid # 7       15206       15206       15206       15206       15206       15206       15206
  grid # 8         786         786         786         786         786         786         786
  grid # 9         420         420         420         420         420         420         420
   
  number of gridpoints: 
     atom          H77         H78         H79         H80         H81         H82         H83
  grid # 1         104         107         104         110         109         100         105
  grid # 2         423         445         430         453         446         420         435
  grid # 3         101         246         125         302         270          90         203
  grid # 4        8714        8714        8714        8714        8714        8714        8714
  grid # 5        1192        1192        1192        1192        1192        1192        1192
  grid # 6        5922        5922        5922        5922        5922        5922        5922
  grid # 7       15206       15206       15206       15206       15206       15206       15206
  grid # 8         786         786         786         786         786         786         786
  grid # 9         420         420         420         420         420         420         420
   
  number of gridpoints: 
     atom          H84         H85         H86         H87         H88         H89         H90
  grid # 1         108         109         104         102         104         107          99
  grid # 2         451         453         432         420         434         440         409
  grid # 3         261         313         132          53         172         210          21
  grid # 4        8714        8714        8714        8714        8714        8714        8714
  grid # 5        1192        1192        1192        1192        1192        1192        1192
  grid # 6        5922        5922        5922        5922        5922        5922        5922
  grid # 7       15206       15206       15206       15206       15206       15206       15206
  grid # 8         786         786         786         786         786         786         786
  grid # 9         420         420         420         420         420         420         420
   
  number of gridpoints: 
     atom          H91         H92         H93         H94         H95         H96         H97
  grid # 1         109         104         110         104         110         106         109
  grid # 2         443         427         446         431         454         442         453
  grid # 3         254         141         278          91         309         235         314
  grid # 4        8714        8714        8714        8714        8714        8714        8714
  grid # 5        1192        1192        1192        1192        1192        1192        1192
  grid # 6        5922        5922        5922        5922        5922        5922        5922
  grid # 7       15206       15206       15206       15206       15206       15206       15206
  grid # 8         786         786         786         786         786         786         786
  grid # 9         420         420         420         420         420         420         420
   
  number of gridpoints: 
     atom          H98         H99        H100        H101        H102        H103        C104
  grid # 1         107         110         111         110         109         109          91
  grid # 2         454         447         449         459         446         446         326
  grid # 3         286         274         291         337         277         265           6
  grid # 4        8714        8714        8714        8714        8714        8714        8714
  grid # 5        1192        1192        1192        1192        1192        1192        1192
  grid # 6        5922        5922        5922        5922        5922        5922        5922
  grid # 7       15206       15206       15206       15206       15206       15206       13950
  grid # 8         786         786         786         786         786         786         748
  grid # 9         420         420         420         420         420         420         394
   
  number of gridpoints: 
     atom         C105        C106        C107        H108        H109        H110        H111
  grid # 1          80          79          81         105         109         104         101
  grid # 2         243         245         237         429         450         436         420
  grid # 3           6           6           6         120         283         155          91
  grid # 4        8714        8714        8714        8714        8714        8714        8714
  grid # 5        1192        1192        1192        1192        1192        1192        1192
  grid # 6        5922        5922        5922        5922        5922        5922        5922
  grid # 7       13950       13950       13950       15206       15206       15206       15206
  grid # 8         748         748         748         786         786         786         786
  grid # 9         394         394         394         420         420         420         420
   
  number of gridpoints: 
     atom         H112        H113        H114        H115        H116        N118        H119
  grid # 1         106         109         109         105         107          99         100
  grid # 2         438         449         451         426         442         312         398
  grid # 3         165         279         294         114         195           6          27
  grid # 4        8714        8714        8714        8714        8714        8714        8714
  grid # 5        1192        1192        1192        1192        1192        1192        1192
  grid # 6        5922        5922        5922        5922        5922        5922        5922
  grid # 7       15206       15206       15206       15206       15206       13958       15206
  grid # 8         786         786         786         786         786         756         786
  grid # 9         420         420         420         420         420         406         420
   
  number of gridpoints: 
     atom         H120        C121        C122        C123        C124        C125        C126
  grid # 1          93          99          96          95          95          96          96
  grid # 2         382         348         322         322         321         322         323
  grid # 3          11           9          37          16          16          32          27
  grid # 4        8714        8714        8714        8714        8714        8714        8714
  grid # 5        1192        1192        1192        1192        1192        1192        1192
  grid # 6        5922        5922        5922        5922        5922        5922        5922
  grid # 7       15206       13950       13950       13950       13950       13950       13950
  grid # 8         786         748         748         748         748         748         748
  grid # 9         420         394         394         394         394         394         394
   
  number of gridpoints: 
     atom         H127        H128        H129        H130        H131       total
  grid # 1         109         108         117         117         117       14385
  grid # 2         428         425         464         465         466       50292
  grid # 3         101         106         394         368         405       15419
  grid # 4        8714        8714        8714        8714        8714     1141534
  grid # 5        1192        1192        1192        1192        1192      156152
  grid # 6        5922        5922        5922        5922        5922      782202
  grid # 7       15206       15206       15206       15206       15206     1984784
  grid # 8         786         786         786         786         786      101246
  grid # 9         420         420         420         420         420       55392
   
  end of program grid
   
 Time(grid)  user:    1591.525  user+sys:    1591.525  wallclock:     402.480
  
  start of program rwr
  
  end of program rwr
   
 Time(rwr)  user:      91.571  user+sys:      91.571  wallclock:      27.882
  
  start of program scf
  
 number of electrons..........        452
 number of alpha electrons....        226
 number of beta electrons.....        226
 number of orbitals, total....        976
 number of doubly-occ'd orbs..        226
 number of open shell orbs....          0
 number of occupied orbitals..        226
 number of virtual orbitals...        750
 number of hamiltonians.......          1
 number of shells.............          1
 SCF type: DFT=Becke_3_Parameter/HF+Slater+Becke88+PW91+PW-GGAIIC (B3PW91-D3)
 Energy computed using pseudospectral method.
 Convergence Criterion:
    Energy (econv):       1.00E-05
    RMS density (dconv):  5.00E-06
  
       i  u  d  i  g                   
       t  p  i  c  r                                 RMS    maximum
       e  d  i  u  i                       energy  density   DIIS  
       r  t  s  t  d       total energy    change  change    error 
  
etot    1  N  N  5  M   -2827.38945091922           1.6E-03  2.0E-01
etot    2  Y  Y  6  M   -2832.70795499781  5.3E+00  2.3E-03  1.2E-01
etot    3  Y  Y  6  M   -2834.33498436751  1.6E+00  9.2E-04  5.7E-02
etot    4  N  Y  2  U   -2834.70084617598  3.7E-01  6.5E-04  3.8E-02
etot    5  Y  Y  6  M   -2834.81170113526  1.1E-01  4.0E-04  2.3E-02
etot    6  N  Y  2  U   -2834.82842572798  1.7E-02  5.0E-04  1.3E-02
etot    7  Y  Y  6  M   -2834.83785278518  9.4E-03  7.8E-05  5.2E-03
etot    8  N  Y  2  U   -2834.84589988935  8.0E-03  2.6E-05  8.9E-04
etot    9  N  Y  2  U   -2834.84609770180  2.0E-04  6.3E-06  2.5E-04
etot   10  N  Y  2  U   -2834.84610624300  8.5E-06  2.6E-06  1.1E-04
etot   11  N  N  2  U   -2834.84610983823  3.6E-06  0.0E+00  0.0E+00
 
  Computing the dispersion energy correction...
  
  
 Energy components, in hartrees:
   (A)  Nuclear repulsion............   10685.63849576746
   (E)  Total one-electron terms.....  -25219.21525912803
   (F)    Electron-nuclear...........  -27957.55504844183
   (H)    Kinetic....................    2738.33978931380
   (I)  Total two-electron terms.....   11698.73065352234
   (J)    Coulomb....................   12081.64011178591
   (K)    Exchange+Correlation.......    -382.90945826357
   (L)  Electronic energy............  -13520.48460560569  (E+I)
   (N0) D3 correction................      -0.27116414262
   (N)  Total energy.................   -2835.11727398085  (A+L+N0)
   (O)  Gas phase energy.............   -2835.11727398085
  
 SCFE: SCF energy: DFT(b3pw91-d3)     -2835.11727398085 hartrees   iterations:  11
  
 
 HOMO energy:    -0.17102
 LUMO energy:    -0.03526
 
  Orbital energies (hartrees): 
   -77.05795   -24.66011   -19.18170   -19.17675   -19.04898   -14.36058
   -10.24559   -10.23985   -10.23502   -10.23010   -10.22329   -10.21433
   -10.19976   -10.19694   -10.18766   -10.18574   -10.18379   -10.18343
   -10.18134   -10.18131   -10.17856   -10.17814   -10.17530   -10.17514
   -10.17386   -10.17351   -10.17326   -10.17194   -10.17096   -10.16946
   -10.16775   -10.16597   -10.16562   -10.16541   -10.16312   -10.16261
   -10.16082   -10.15953   -10.15772   -10.15560   -10.15376   -10.15203
[...]
    H68      Z     0.00001   0.00007  -0.00001
    H69      X     0.00001   0.00002   0.00001
    H69      Y     0.00001  -0.00006  -0.00004
    H69      Z    -0.00007   0.00019   0.00015
    H70      X    -0.00004   0.00004   0.00001
    H70      Y    -0.00014   0.00010   0.00008
    H70      Z    -0.00005   0.00000   0.00001
    H71      X    -0.00003  -0.00005  -0.00006
    H71      Y    -0.00009   0.00034   0.00010
    H71      Z     0.00064  -0.00129  -0.00034
    H72      X    -0.00013   0.00048  -0.00031
    H72      Y    -0.00002   0.00010  -0.00011
    H72      Z     0.00002  -0.00017  -0.00002
    H73      X     0.00115  -0.00018   0.00005
    H73      Y     0.00138  -0.00016   0.00001
    H73      Z     0.00080  -0.00016   0.00005
    H74      X     0.00087   0.00005   0.00007
    H74      Y    -0.00023   0.00005  -0.00000
    H74      Z     0.00226  -0.00001   0.00008
    H75      X    -0.03739  -0.00202   0.00033
    H75      Y     0.02076   0.00089  -0.00015
    H75      Z     0.05537   0.00233  -0.00033
    H76      X    -0.00140   0.00406  -0.00061
    H76      Y     0.00111  -0.00226   0.00011
    H76      Z    -0.00011   0.00089  -0.00016
    H77      X    -0.00002  -0.00017   0.00080
    H77      Y     0.00000   0.00046  -0.00068
    H77      Z    -0.00001  -0.00242   0.00209
    H78      X    -0.00009  -0.00023   0.00010
    H78      Y     0.00012   0.00036  -0.00034
    H78      Z    -0.00019   0.00002   0.00017
    H79      X    -0.00000   0.00078  -0.00013
    H79      Y    -0.00001   0.00036  -0.00008
    H79      Z    -0.00000   0.00021  -0.00008
    H80      X    -0.00004   0.00054  -0.00013
    H80      Y     0.00008  -0.00130   0.00042
    H80      Z     0.00009  -0.00165   0.00039
    H81      X    -0.00002   0.00099  -0.00036
    H81      Y    -0.00001   0.00069   0.00090
    H81      Z    -0.00000  -0.00043   0.00068
    H82      X     0.00002   0.00259   0.00018
    H82      Y     0.00012   0.00487   0.00213
    H82      Z     0.00001  -0.00130  -0.00142
    H83      X    -0.00012  -0.00062   0.00028
    H83      Y     0.00015   0.00045  -0.00092
    H83      Z    -0.00026  -0.00067   0.00074
    H84      X    -0.00007   0.00022  -0.00008
    H84      Y    -0.00011   0.00005  -0.00004
    H84      Z     0.00019  -0.00019   0.00013
    H85      X     0.00009  -0.00162   0.00047
    H85      Y    -0.00006   0.00041  -0.00010
    H85      Z     0.00003  -0.00025   0.00006
    H86      X    -0.00003   0.00016  -0.00003
    H86      Y     0.00008   0.00018   0.00003
    H86      Z     0.00010   0.00018  -0.00001
    H87      X    -0.00013  -0.00042   0.00016
    H87      Y     0.00007   0.00080  -0.00030
    H87      Z    -0.00011  -0.00137   0.00046
    H88      X     0.00006   0.00018  -0.00006
    H88      Y    -0.00068  -0.00003  -0.00002
    H88      Z     0.00164  -0.00001   0.00014
    H89      X     0.00034  -0.00130   0.00039
    H89      Y    -0.00018   0.00093  -0.00025
    H89      Z     0.00011  -0.00011   0.00002
    H90      X     0.00014  -0.00309   0.00022
    H90      Y     0.00007  -0.00281   0.00026
    H90      Z     0.00008   0.00028  -0.00006
    H91      X    -0.00207   0.00021   0.00004
    H91      Y    -0.00102   0.00028  -0.00003
    H91      Z    -0.00012  -0.00012   0.00003
    H92      X     0.00057  -0.00033   0.00005
    H92      Y    -0.00617   0.00065  -0.00007
    H92      Z     0.00197  -0.00004   0.00003
    H93      X    -0.00068   0.00034  -0.00009
    H93      Y     0.00082  -0.00028   0.00006
    H93      Z    -0.00130   0.00120  -0.00029
    H94      X    -0.00206   0.00074  -0.00008
    H94      Y     0.00028  -0.00007   0.00005
    H94      Z    -0.00052   0.00071  -0.00014
    H95      X     0.00072  -0.00002   0.00009
    H95      Y     0.00000   0.00011   0.00001
    H95      Z     0.00014  -0.00016   0.00004
    H96      X     0.00041  -0.00044   0.00008
    H96      Y    -0.00021   0.00038  -0.00010
    H96      Z    -0.00054   0.00011  -0.00000
    H97      X    -0.00004   0.00060  -0.00014
    H97      Y     0.00007  -0.00067   0.00017
    H97      Z     0.00007   0.00159  -0.00036
    H98      X     0.00000   0.00011   0.00002
    H98      Y     0.00000   0.00031  -0.00012
    H98      Z     0.00000  -0.00013   0.00004
    H99      X     0.00010  -0.00004  -0.00029
    H99      Y     0.00000  -0.00004   0.00002
    H99      Z    -0.00000  -0.00002   0.00001
    H100     X    -0.00002  -0.00005   0.00004
    H100     Y     0.00008  -0.00000   0.00009
    H100     Z     0.00008   0.00002   0.00007
    H101     X     0.00001   0.00004  -0.00002
    H101     Y     0.00005   0.00006  -0.00009
    H101     Z    -0.00004   0.00000   0.00006
    H102     X     0.00006  -0.00034   0.00006
    H102     Y    -0.00002   0.00009  -0.00001
    H102     Z     0.00002  -0.00009  -0.00001
    H103     X    -0.00002   0.00011  -0.00005
    H103     Y     0.00002  -0.00016   0.00006
    H103     Z     0.00004  -0.00028   0.00008
    C104     X    -0.00000   0.00006   0.00002
    C104     Y    -0.00000   0.00008   0.00001
    C104     Z     0.00009   0.00019   0.00003
    C105     X     0.00077  -0.00008   0.00001
    C105     Y    -0.00055  -0.00003   0.00001
    C105     Z     0.00001   0.00000   0.00000
    C106     X     0.00002  -0.00003  -0.00000
    C106     Y    -0.00001   0.00004   0.00001
    C106     Z     0.00006  -0.00000  -0.00001
    C107     X    -0.00001  -0.00006   0.00000
    C107     Y    -0.00002  -0.00002   0.00001
    C107     Z     0.00004  -0.00004  -0.00002
    H108     X    -0.00983   0.00012   0.00001
    H108     Y     0.00352  -0.00003   0.00002
    H108     Z    -0.00251   0.00010   0.00002
    H109     X    -0.00074   0.00017   0.00002
    H109     Y     0.00240  -0.00024  -0.00008
    H109     Z     0.00195  -0.00044  -0.00005
    H110     X     0.00142   0.00064  -0.00014
    H110     Y     0.00027   0.00049  -0.00008
    H110     Z     0.00016  -0.00001   0.00002
    H111     X    -0.00004  -0.00006  -0.00003
    H111     Y     0.00054  -0.00005  -0.00013
    H111     Z    -0.00082   0.00014   0.00015
    H112     X     0.00008   0.00040  -0.00005
    H112     Y     0.00006   0.00035   0.00001
    H112     Z     0.00005   0.00004  -0.00001
    H113     X     0.00008   0.00039   0.00006
    H113     Y    -0.00017  -0.00056  -0.00009
    H113     Z    -0.00008  -0.00039  -0.00003
    H114     X     0.00007   0.00004  -0.00000
    H114     Y    -0.00029  -0.00054  -0.00006
    H114     Z    -0.00022  -0.00044  -0.00003
    H115     X    -0.00049   0.00027   0.00001
    H115     Y     0.00033  -0.00012  -0.00000
    H115     Z    -0.00006   0.00016   0.00001
    H116     X     0.00011   0.00001  -0.00001
    H116     Y     0.00034   0.00007  -0.00008
    H116     Z    -0.00059   0.00002   0.00013
    N118     X    -0.00003   0.03279  -0.00162
    N118     Y    -0.00006   0.05256  -0.00919
    N118     Z    -0.00001  -0.00954   0.07183
    H119     X     0.00010  -0.42122   0.10618
    H119     Y     0.00077  -0.73810   0.19867
    H119     Z     0.00044   0.38485  -0.08203
    H120     X     0.00014  -0.01973  -0.07812
    H120     Y     0.00008  -0.00435  -0.07416
    H120     Z    -0.00005  -0.25811  -0.92173
    C121     X     0.00002   0.00018  -0.00031
    C121     Y    -0.00001   0.00037   0.00020
    C121     Z    -0.00001   0.00023   0.00025
    C122     X    -0.00003  -0.00008  -0.00006
    C122     Y    -0.00001   0.00001   0.00011
    C122     Z    -0.00001  -0.00003  -0.00015
    C123     X     0.00024  -0.00081  -0.00011
    C123     Y     0.00019  -0.00029   0.00027
    C123     Z    -0.00016   0.00012  -0.00013
    C124     X     0.00001  -0.00100  -0.00018
    C124     Y    -0.00003  -0.00011   0.00001
    C124     Z     0.00004  -0.00011  -0.00020
    C125     X    -0.00001   0.00023   0.00028
    C125     Y    -0.00001   0.00007  -0.00008
    C125     Z     0.00001  -0.00002   0.00004
    C126     X    -0.00004   0.00018  -0.00012
    C126     Y     0.00007  -0.00012  -0.00009
    C126     Z    -0.00009   0.00006   0.00004
    H127     X    -0.00296   0.00284  -0.00052
    H127     Y    -0.00243   0.00172  -0.00006
    H127     Z     0.00203  -0.00088   0.00009
    H128     X    -0.00017   0.00077   0.00102
    H128     Y     0.00035  -0.00021   0.00048
    H128     Z    -0.00044   0.00051   0.00112
    H129     X     0.00014  -0.00186  -0.00035
    H129     Y     0.00012  -0.00141  -0.00020
    H129     Z    -0.00010   0.00106   0.00024
    H130     X     0.00038  -0.00107  -0.00005
    H130     Y    -0.00072   0.00129   0.00026
    H130     Z     0.00093  -0.00167  -0.00019
    H131     X     0.00034  -0.00032   0.00015
    H131     Y     0.00002   0.00016   0.00021
    H131     Z     0.00008   0.00001   0.00018
  
  Number of imaginary frequencies:   0
   
  Writing vibrational animation data to L_Ar_OtBu_N_Ar_trans_PL344_3_freq.vib
  Writing IR vibrational spectrum data to L_Ar_OtBu_N_Ar_trans_PL344_3_freq_vib.spm
  rotational symmetry number:  1

  rotational temperatures (K):      0.002577      0.002033      0.001872
   
  The Quasi-Harmonic approximation will be applied to compute
  vibrational constributions to thermodynamic properties.
  Frequencies will be adjusted to a minimum value of  100.00 cm^-1.

  vibrational temperatures:
       mode:      1        2        3        4        5        6
  temp. (K):   143.88   143.88   143.88   143.88   143.88   143.88
   
       mode:      7        8        9       10       11       12
  temp. (K):   143.88   143.88   143.88   143.88   143.88   143.88
   
       mode:     13       14       15       16       17       18
  temp. (K):   143.88   143.88   143.88   143.88   143.88   143.88
   
       mode:     19       20       21       22       23       24
  temp. (K):   143.88   143.88   143.88   143.88   145.91   148.85
   
       mode:     25       26       27       28       29       30
  temp. (K):   160.27   166.24   172.24   177.34   186.78   194.23
   
       mode:     31       32       33       34       35       36
  temp. (K):   199.96   203.19   211.20   229.15   237.12   244.11
   
       mode:     37       38       39       40       41       42
  temp. (K):   254.20   257.86   266.25   272.34   282.46   296.80
   
       mode:     43       44       45       46       47       48
  temp. (K):   303.23   306.08   311.58   322.03   329.23   334.57
   
       mode:     49       50       51       52       53       54
  temp. (K):   344.23   346.85   361.54   372.71   374.86   382.38
   
       mode:     55       56       57       58       59       60
  temp. (K):   389.50   390.42   399.71   416.37   420.98   422.47
   
       mode:     61       62       63       64       65       66
  temp. (K):   426.81   430.43   435.06   444.28   458.09   473.05
   
       mode:     67       68       69       70       71       72
  temp. (K):   479.38   483.04   487.47   491.45   499.89   525.22
   
       mode:     73       74       75       76       77       78
  temp. (K):   533.50   537.86   553.99   556.35   559.36   576.67
   
       mode:     79       80       81       82       83       84
  temp. (K):   583.64   591.13   593.15   598.38   601.51   611.88
   
       mode:     85       86       87       88       89       90
  temp. (K):   617.70   625.07   645.15   654.21   658.49   666.25
   
       mode:     91       92       93       94       95       96
  temp. (K):   673.93   685.86   687.98   691.68   708.25   743.15
   
       mode:     97       98       99      100      101      102
  temp. (K):   750.57   764.14   766.62   787.75   791.42   799.40
   
       mode:    103      104      105      106      107      108
  temp. (K):   814.23   823.58   836.48   840.11   880.25   900.37
   
       mode:    109      110      111      112      113      114
  temp. (K):   903.31   911.96   916.72   943.64   950.28   968.10
   
       mode:    115      116      117      118      119      120
  temp. (K):   973.02  1022.06  1033.19  1043.69  1053.17  1096.56
   
       mode:    121      122      123      124      125      126
  temp. (K):  1108.80  1114.68  1128.77  1141.35  1169.13  1179.63
   
       mode:    127      128      129      130      131      132
  temp. (K):  1185.53  1187.40  1191.12  1191.98  1196.63  1197.45
   
       mode:    133      134      135      136      137      138
  temp. (K):  1200.98  1207.17  1213.13  1214.85  1232.50  1257.52
   
       mode:    139      140      141      142      143      144
  temp. (K):  1261.96  1301.56  1305.79  1308.46  1310.48  1312.05
   
       mode:    145      146      147      148      149      150
  temp. (K):  1315.29  1317.11  1318.67  1319.42  1322.84  1327.80
   
       mode:    151      152      153      154      155      156
  temp. (K):  1342.82  1358.87  1360.42  1363.31  1365.75  1371.69
   
       mode:    157      158      159      160      161      162
  temp. (K):  1379.99  1383.38  1388.87  1390.62  1406.71  1413.90
   
       mode:    163      164      165      166      167      168
  temp. (K):  1416.35  1420.27  1424.67  1426.16  1449.96  1470.74
   
       mode:    169      170      171      172      173      174
  temp. (K):  1477.09  1483.43  1484.27  1508.70  1514.53  1519.61
   
       mode:    175      176      177      178      179      180
  temp. (K):  1522.72  1524.87  1531.76  1547.38  1557.39  1560.18
   
       mode:    181      182      183      184      185      186
  temp. (K):  1565.23  1581.65  1589.21  1594.89  1600.86  1605.70
   
       mode:    187      188      189      190      191      192
  temp. (K):  1606.34  1611.54  1611.71  1623.54  1632.17  1638.11
   
       mode:    193      194      195      196      197      198
  temp. (K):  1651.52  1654.91  1656.12  1659.08  1669.25  1678.03
   
       mode:    199      200      201      202      203      204
  temp. (K):  1699.41  1702.77  1716.79  1722.11  1723.29  1730.27
   
       mode:    205      206      207      208      209      210
  temp. (K):  1739.84  1740.89  1744.60  1749.56  1754.02  1756.76
   
       mode:    211      212      213      214      215      216
  temp. (K):  1759.62  1769.69  1782.35  1791.80  1801.42  1812.50
   
       mode:    217      218      219      220      221      222
  temp. (K):  1818.84  1820.33  1831.85  1845.15  1863.34  1865.90
   
       mode:    223      224      225      226      227      228
  temp. (K):  1873.31  1874.79  1879.40  1886.03  1890.54  1895.66
   
       mode:    229      230      231      232      233      234
  temp. (K):  1898.19  1903.80  1906.14  1907.90  1930.59  1932.62
   
       mode:    235      236      237      238      239      240
  temp. (K):  1934.52  1937.32  1943.41  1948.15  1960.96  1966.46
   
       mode:    241      242      243      244      245      246
  temp. (K):  1978.73  1979.92  1983.83  1993.59  1998.15  2005.36
   
       mode:    247      248      249      250      251      252
  temp. (K):  2012.49  2015.24  2015.92  2016.87  2018.61  2020.02
   
       mode:    253      254      255      256      257      258
  temp. (K):  2022.28  2022.93  2025.29  2031.24  2047.55  2050.23
   
       mode:    259      260      261      262      263      264
  temp. (K):  2052.20  2057.92  2064.53  2081.12  2087.22  2089.12
   
       mode:    265      266      267      268      269      270
  temp. (K):  2107.15  2116.25  2119.22  2152.79  2157.91  2164.16
   
       mode:    271      272      273      274      275      276
  temp. (K):  2169.90  2171.52  2172.19  2172.86  2173.65  2175.36
   
       mode:    277      278      279      280      281      282
  temp. (K):  2176.64  2180.53  2181.97  2183.64  2184.53  2186.55
   
       mode:    283      284      285      286      287      288
  temp. (K):  2187.57  2187.78  2188.60  2190.31  2190.66  2191.28
   
       mode:    289      290      291      292      293      294
  temp. (K):  2192.59  2197.04  2198.04  2199.86  2200.62  2203.78
   
       mode:    295      296      297      298      299      300
  temp. (K):  2204.80  2205.26  2211.04  2212.81  2222.38  2223.10
   
       mode:    301      302      303      304      305      306
  temp. (K):  2223.56  2225.18  2233.99  2234.40  2243.26  2325.96
   
       mode:    307      308      309      310      311      312
  temp. (K):  2361.26  2362.12  2369.83  2372.67  2396.28  2399.45
   
       mode:    313      314      315      316      317      318
  temp. (K):  2416.88  2419.12  4334.42  4342.48  4342.79  4346.51
   
       mode:    319      320      321      322      323      324
  temp. (K):  4349.40  4349.63  4354.71  4357.23  4360.33  4371.72
   
       mode:    325      326      327      328      329      330
  temp. (K):  4372.13  4376.39  4377.05  4383.79  4385.15  4386.90
   
       mode:    331      332      333      334      335      336
  temp. (K):  4389.56  4390.29  4393.12  4400.43  4402.72  4410.03
   
       mode:    337      338      339      340      341      342
  temp. (K):  4420.11  4421.28  4425.30  4428.45  4436.91  4443.38
   
       mode:    343      344      345      346      347      348
  temp. (K):  4445.04  4446.67  4457.85  4459.52  4461.63  4461.92
   
       mode:    349      350      351      352      353      354
  temp. (K):  4465.80  4470.29  4474.38  4480.36  4482.02  4485.53
   
       mode:    355      356      357      358      359      360
  temp. (K):  4487.22  4488.32  4494.35  4495.81  4497.92  4498.15
   
       mode:    361      362      363      364      365      366
  temp. (K):  4507.98  4509.66  4515.33  4528.31  4529.27  4541.78
   
       mode:    367      368      369      370      371      372
  temp. (K):  4545.49  4546.78  4548.97  4555.21  4577.60  4583.22
   
       mode:    373      374      375      376      377      378
  temp. (K):  4583.52  4584.64  4588.50  4597.32  4605.10  4613.42
   
       mode:    379      380      381      382      383      384
  temp. (K):  4619.88  4623.73  4633.32  4634.75  4642.61  4656.18
   
       mode:    385      386      387
  temp. (K):  4662.62  4957.64  5154.49
   
   
  Thermodynamic properties calculated assuming an ideal gas

  In the table below, the units for temperature
  are kelvins, the units for U, H, and G are
  kcal/mol and the units for Cv and S are cal/(mol K)

  The zero point energy (ZPE):    725.897 kcal/mol
  is not included in U, H, or G in the table below
  
 
  =============================================================================
  Thermodynamic properties for P = 1.00E+00 atm, calculated at   1 temperatures


  T =   298.15 K, P = 1.00E+00 atm
   
                  U         Cv          S          H          G        ln(Q)
              =========  =========  =========  =========  =========  =========
  trans.          0.889      2.981     46.279      1.481    -12.317   20.78843
  rot.            0.889      2.981     39.424      0.889    -10.865   18.33882
  vib.           35.867    234.499    218.792     35.867    -29.366   49.56439
  elec.           0.000      0.000      0.000      0.000      0.000    0.00000
  ----------------------------------------------------------------------------
  total          37.644    240.461    304.494     38.237    -52.549   88.69164
   
   Total internal energy, Utot(SCFE + ZPE + U):   -2833.908646 hartrees
   Total enthalpy, Htot (Utot + nRT), with n=1:   -2833.907702 hartrees
    Total Gibbs free energy, Gtot (Htot - T*S):   -2834.052377 hartrees
   
  end of program freq
   
 Time(freq)  user:       1.573  user+sys:       1.573  wallclock:       0.861
  
  start of program post
  
  Writing input files for PBF
  end of program post
   
 Time(post)  user:       0.345  user+sys:       0.345  wallclock:       0.202

 Total cpu seconds     user:  256415.524   user+sys:  256415.524
  
 Total elapsed time:    75013 seconds

Job L_Ar_OtBu_N_Ar_trans_PL344_3_freq completed on bp1-compute083.data.bp.acrc.priv at Sat Nov 22 09:31:52 2025
