Job L_Ar_OtBu_Br_Ar_trans_PL344 started on bp1-compute103.data.bp.acrc.priv at Tue Jul 15 10:22:30 2025
jobid: bp1-compute103-0-68761dd0

  +--------------------------------------------------------------------+
  |  Jaguar version 12.5, release 138                                  |
  |                                                                    |
  |  Copyright Schrodinger, Inc.                                       |
  |  All Rights Reserved.                                              |
  |                                                                    |
  |  The following have contributed to Jaguar (listed alphabetically): |
  |  Ty Balduf, Mike Beachy, Chandler Bennett, Art Bochevarov,         |
  |  Dale Braden, Yixiang Cao, Alan Chien, Chris Cortis,               |
  |  Rich Friesner, Jim Furness, Bill Goddard, Hod Greeley,            |
  |  Tom Hughes, Leif Jacobson, Jean-Marc Langlois, Daniel Levine,     |
  |  Rob Murphy, Dean Philipp, Tom Pollard, Murco Ringnalda,           |
  |  Daniel Mainz, Pablo Videla, Mark Watson, Haoyu Yu.                |
  |                                                                    |
  |  Use of this program should be acknowledged in publications as:    |
  |                                                                    |
  |  Jaguar, version 12.5, Schrodinger, Inc., New York, NY, 2024.      |
  |                                                                    |
  |  A. D. Bochevarov, E. Harder, T. F. Hughes, J. R. Greenwood,       |
  |  D. A. Braden, D. M. Philipp, D. Rinaldo, M. D. Halls,             |
  |  J. Zhang, R. A. Friesner, "Jaguar: A High-Performance Quantum     |
  |  Chemistry Software Program with Strengths in Life and Materials   |
  |  Sciences", Int. J. Quantum Chem., 2013, 113(18), 2110-2142.       |
  +--------------------------------------------------------------------+
  
  start of program pre
  
  Job name: L_Ar_OtBu_Br_Ar_trans_PL344
  Executables used: /software/local/apps/schrodinger2024-3/jaguar-v12.5/bin/Linux-x86_64
  Temporary files : /tmp/ar21627/L_Ar_OtBu_Br_Ar_trans_PL344#bp1-compute103-0-68761dd0
  Basis file : using default basis file from /software/local/apps/schrodinger2024-3
  Maestro file (input):  L_Ar_OtBu_Br_Ar_trans_PL344.mae
  Maestro file (output): L_Ar_OtBu_Br_Ar_trans_PL344.01.mae
  
 Contents of input file: &gen and (if present) &atomic sections only
 ----------------Contents start----------------
&gen
dftname=b3pw91-d3
basis=6-31G*
numd=5
ip11=2
iaccg=3
isolv=2
igeopt=1
ifreq=1
molchg=-1
solvent=benzene
&
&atomic
atom basis
Pd2 lacv3p*
Br118 lacv3p*
&
 -----------------Contents end-----------------
 
  PS calculation requested. Using PS version of 6-31g*
  basis set:               non_standard                    
  net molecular charge:   -1
  multiplicity:            1
  
  Using up to   4 threads per process
  
  This run will use ECP on            2  atoms
  number of basis functions....          876
  
 Input geometry:
                                   angstroms
  atom               x                 y                 z
  P1           -0.3558858518      0.0409598826     -0.1575338966 
  Pd2           0.5431526845      0.1667154769      2.2122659585 
  O2           -0.9055025153      1.4627686817      2.7786802676 
  C3            3.3468523034     -0.1405701988      6.0680997053 
  C4            2.1889752064     -0.9013767022      5.9983967814 
  C5            1.3320069491     -0.7127086117      4.9108242498 
  C6            1.6173600429      0.2136707271      3.9002825678 
  C7            2.7959621804      0.9653016647      4.0147132804 
  C8            3.6629505016      0.7993460766      5.0979661621 
  F9            4.1937140041     -0.3229353324      7.1100603426 
  H10           1.9674153476     -1.6207100983      6.7833928301 
  H11           3.0686500077      1.6762461077      3.2383165190 
  H12           4.5834567307      1.3711359509      5.1850412193 
  H13           0.4212502419     -1.2975082708      4.8472870710 
  C14           1.2153670574      0.1926028709     -1.2234216494 
  C15           1.2829862003      1.2641991065     -2.3226950424 
  C16           2.7145558229      1.3548546511     -2.8712560503 
  C17           3.1972007413      0.0100922944     -3.4241477322 
  C18           3.0631700380     -1.1016846513     -2.3793982479 
  C19           1.6368616206     -1.1593037932     -1.8246038154 
  C20          -1.4013841631      1.5226523976     -0.5969344716 
  C21          -2.8540451343      1.3312644176     -0.1378004125 
  C22          -3.7068806301      2.5076907534     -0.6259787126 
  C23          -3.1546945135      3.8482873781     -0.1323730379 
  C24          -1.6678752491      4.0124298975     -0.4695712923 
  C25          -0.8410635686      2.8160225391      0.0153675815 
  C26          -1.2718738680     -1.4060308404     -0.9289471605 
  C27          -1.5413315253     -2.5969204324     -0.2223200257 
  C28          -2.3666613550     -3.5913748653     -0.8079179539 
  C29          -2.8834466500     -3.4310725905     -2.0867135906 
  C30          -2.5686530442     -2.2872133796     -2.8149604107 
  C31          -1.7675746359     -1.2977368067     -2.2568761843 
  C32          -1.0287321068     -2.9248565423      1.1493784843 
  C33          -1.7566841047     -2.5115598369      2.2834848060 
  C34          -1.3176772436     -2.8966488976      3.5547499329 
  C35          -0.1869105529     -3.6885103203      3.7437669372 
  C36           0.4941374272     -4.1204051916      2.5996961333 
  C37           0.0894136345     -3.7782754177      1.3053145378 
  C38           0.8106873019     -4.4151013207      0.1184773241 
  C39           0.3920064604     -5.8910064751      0.0012908007 
  C40           2.3449792866     -4.3440856473      0.1714430810 
  C41          -4.2349411041     -2.7701135889      2.2183491488 
  C42          -3.0732702774     -1.7651789582      2.1395126213 
  C43          -3.2601566869     -0.6361029996      3.1523442514 
  C44          -0.4989609867     -3.5620565712      6.2912838407 
  C45           0.3253848132     -4.1021051092      5.1200907288 
  C46           0.4336028921     -5.6318499575      5.2382909256 
  O47          -1.3932107036     -0.1940758250     -2.9598151740 
  C48          -1.9722707806      0.0516333684     -4.2283210013 
  O49          -2.6170072421     -4.6833339453     -0.0299952113 
  C50          -3.4548948531     -5.7016368025     -0.5450674769 
  H51           1.9631690531      0.4818585271     -0.4696279910 
  H52           0.9759387782      2.2430771708     -1.9435567276 
  H53           0.5913805995      0.9990982055     -3.1286514405 
  H54           2.7655843313      2.1274482465     -3.6499725448 
  H55           3.3893678678      1.6817730696     -2.0644898184 
  H56           4.2362759014      0.0873092232     -3.7704315191 
  H57           2.5900868727     -0.2533379203     -4.3035835563 
  H58           3.3341210066     -2.0733414077     -2.8129279685 
  H59           3.7677676476     -0.9225468129     -1.5536137504 
  H60           1.5478559072     -1.9793117237     -1.1016013233 
  H61           0.9353247252     -1.4136514916     -2.6294853396 
  H62          -1.3918267983      1.6071999985     -1.6876636658 
  H63          -2.8684372233      1.2736292744      0.9587712313 
  H64          -3.2657394737      0.3916240765     -0.5275941779 
  H65          -3.7215717580      2.4998808209     -1.7274706612 
  H66          -4.7471490693      2.3816390977     -0.2965705579 
  H67          -3.2821933260      3.8979458861      0.9562164847 
  H68          -3.7352214576      4.6795778858     -0.5552078252 
  H69          -1.5519084090      4.1183231174     -1.5603801305 
  H70          -1.2810776998      4.9382186783     -0.0220807439 
  H71          -0.8841111404      2.7153887572      1.1043752572 
  H72           0.2152087178      2.9624186239     -0.2438957014 
  H73          -3.5193893386     -4.1857688268     -2.5373515956 
  H74          -2.9531983740     -2.1870566269     -3.8245190494 
  H75          -1.8861295918     -2.5618236179      4.4158525530 
  H76           1.3659104068     -4.7604831637      2.7186998644 
  H77           0.4777759956     -3.9023355255     -0.7921528799 
  H78           0.7635432792     -6.4613511089      0.8622598942 
  H79          -0.6948884657     -5.9851937017     -0.0241192654 
  H80           0.8108233883     -6.3395683282     -0.9084585194 
  H81           2.7663998491     -4.8502743993     -0.7055279370 
  H82           2.7417156591     -3.3254090477      0.1759599676 
  H83           2.7461062947     -4.8476948231      1.0586408260 
  H84          -4.2753574716     -3.2251784425      3.2170026962 
  H85          -5.1916888940     -2.2631318972      2.0385767840 
  H86          -4.1181011547     -3.5752102062      1.4875799059 
  H87          -3.0905062586     -1.3131769784      1.1423441668 
  H88          -3.3514255655     -1.0180327815      4.1780285813 
  H89          -4.1889895820     -0.0950492612      2.9287129443 
  H90          -2.4261203212      0.0732117956      3.1070680576 
  H91          -1.5184594966     -3.9680912568      6.2785523921 
  H92          -0.5716703707     -2.4695425001      6.2891216840 
  H93          -0.0373950149     -3.8595186730      7.2400289865 
  H94           1.3410486025     -3.6854404439      5.2139685347 
  H95          -0.5574790499     -6.0924665277      5.1440353345 
  H96           1.0776383950     -6.0658853968      4.4662378419 
  H97           0.8485647193     -5.9125606498      6.2143386931 
  H98          -1.5821707333      1.0198793193     -4.5505052023 
  H99          -3.0676753170      0.1042724518     -4.1676626387 
  H100         -1.6826510872     -0.7133378934     -4.9618058069 
  H101         -3.5204734891     -6.4580909428      0.2403577826 
  H102         -4.4622772066     -5.3224930705     -0.7667779497 
  H103         -3.0298769391     -6.1563494983     -1.4511786456 
  C104         -0.9811530703      2.3804252371      3.8413375648 
  C105         -1.0656195544      1.6997194042      5.2175021220 
  C106          0.1841396574      3.3798942347      3.8279031345 
  C107         -2.2939608330      3.1533982904      3.6119230882 
  H108         -0.1290961894      1.1967098767      5.4619500810 
  H109         -1.2788184711      2.4330742468      6.0072625830 
  H110         -1.8654091233      0.9509474324      5.2158420124 
  H111         -2.2359621149      3.7291556296      2.6832124583 
  H112         -3.1322012897      2.4525112383      3.5289446362 
  H113         -2.4986367078      3.8506701513      4.4348832908 
  H114          0.0486943947      4.1658246236      4.5837874447 
  H115          1.1250949171      2.8641015584      4.0332254366 
  H116          0.2583492667      3.8552851881      2.8424018223 
  Br118         2.1156305203     -1.5548321716      1.5642018028 
   
  principal moments of inertia:
        amu*angstrom^2:              8531.49890             10358.82961             12215.84594
                g*cm^2:          1.41668855E-36          1.72012391E-36          2.02848869E-36
   
  rotational constants:
               cm^(-1):      0.00197593      0.00162737      0.00137998
                   GHz:      0.05923684      0.04878727      0.04137077
   
  Molecular weight:     889.30 amu
   
  Stoichiometry: PdC45PH66BrO3F
  Molecular Point Group: C1      
  Point Group used: C1
  
 
Number of optimization coordinates:   386
Number of independent coordinates:    386
Number of non-redundant coordinates:  348
Number of frozen coordinates:           0
Number of harmonic constraints:         0
 
Number of geometric degrees of freedom:   348
Maximum geometric degrees of freedom:     348
 " " " " " excluding dummy atoms:         348
 
 
  bond lengths (angstroms):
 
 P1      -Pd2     :   2.537723      P1      -C14     :   1.904717
 P1      -C20     :   1.865892      P1      -C26     :   1.878269
 Pd2     -O2      :   2.024643      Pd2     -C6      :   2.001381
 Pd2     -Br118   :   2.420000      O2      -C104    :   1.406079
 C3      -C4      :   1.387215      C3      -C8      :   1.387271
 C3      -F9      :   1.355033      C4      -C5      :   1.397428
 C4      -H10     :   1.087542      C5      -C6      :   1.400286
 C5      -H13     :   1.084207      C6      -C7      :   1.402550
 C7      -C8      :   1.397371      C7      -H11     :   1.087471
 C8      -H12     :   1.087133      C14     -C15     :   1.536650
 C14     -C19     :   1.538418      C14     -H51     :   1.100491
 C15     -C16     :   1.535750      C15     -H52     :   1.093721
 C15     -H53     :   1.094606      C16     -C17     :   1.531999
 C16     -H54     :   1.098137      C16     -H55     :   1.101417
 C17     -C18     :   1.531507      C17     -H56     :   1.097976
 C17     -H57     :   1.100632      C18     -C19     :   1.531494
 C18     -H58     :   1.097943      C18     -H59     :   1.100213
 C19     -H60     :   1.096844      C19     -H61     :   1.097580
 C20     -C21     :   1.535466      C20     -C25     :   1.536776
 C20     -H62     :   1.094043      C21     -C22     :   1.532849
 C21     -H63     :   1.098180      C21     -H64     :   1.097431
 C22     -C23     :   1.531586      C22     -H65     :   1.101618
 C22     -H66     :   1.098434      C23     -C24     :   1.533387
 C23     -H67     :   1.097155      C23     -H68     :   1.098565
 C24     -C25     :   1.533028      C24     -H69     :   1.102055
 C24     -H70     :   1.098610      C25     -H71     :   1.094494
 C25     -H72     :   1.097434      C26     -C27     :   1.410726
 C26     -C31     :   1.421563      C27     -C28     :   1.418814
 C27     -C32     :   1.500619      C28     -C29     :   1.388554
 C28     -O49     :   1.363896      C29     -C30     :   1.392068
 C29     -H73     :   1.084926      C30     -C31     :   1.390053
 C30     -H74     :   1.084949      C31     -O47     :   1.361007
 C32     -C33     :   1.409583      C32     -C37     :   1.415235
 C33     -C34     :   1.398977      C33     -C42     :   1.520267
 C34     -C35     :   1.393343      C34     -H75     :   1.084778
 C35     -C36     :   1.399735      C35     -C45     :   1.525705
 C36     -C37     :   1.398670      C36     -H76     :   1.088049
 C37     -C38     :   1.527863      C38     -C39     :   1.538611
 C38     -C40     :   1.536848      C38     -H77     :   1.096816
 C39     -H78     :   1.097543      C39     -H79     :   1.091264
 C39     -H80     :   1.097387      C40     -H81     :   1.096768
 C40     -H82     :   1.093216      C40     -H83     :   1.096196
 C41     -C42     :   1.538047      C41     -H84     :   1.098192
 C41     -H85     :   1.097595      C41     -H86     :   1.093552
 C42     -C43     :   1.528256      C42     -H87     :   1.094965
 C43     -H88     :   1.098284      C43     -H89     :   1.097944
 C43     -H90     :   1.095807      C44     -C45     :   1.530651
 C44     -H91     :   1.097453      C44     -H92     :   1.094933
 C44     -H93     :   1.096195      C45     -C46     :   1.538116
 C45     -H94     :   1.101815      C46     -H95     :   1.096948
 C46     -H96     :   1.095096      C46     -H97     :   1.097115
 O47     -C48     :   1.415906      C48     -H98     :   1.092466
 C48     -H99     :   1.098345      C48     -H100    :   1.098663
 O49     -C50     :   1.415732      C50     -H101    :   1.092436
 C50     -H102    :   1.098965      C50     -H103    :   1.099291
 C104    -C105    :   1.537636      C104    -C106    :   1.535261
 C104    -C107    :   1.540644      C105    -H108    :   1.090802
 C105    -H109    :   1.098629      C105    -H110    :   1.095594
 C106    -H114    :   1.098814      C106    -H115    :   1.092518
 C106    -H116    :   1.096684      C107    -H111    :   1.094241
 C107    -H112    :   1.095799      C107    -H113    :   1.097881
 
  bond angles:
 
 C14     -P1      -Pd2     : 103.084203  C20     -P1      -Pd2     : 112.275607
 C20     -P1      -C14     : 105.498964  C26     -P1      -Pd2     : 126.475070
 C26     -P1      -C14     : 103.520875  C26     -P1      -C20     : 103.991932
 O2      -Pd2     -P1      :  92.262961  C6      -Pd2     -P1      : 168.216649
 C6      -Pd2     -O2      :  97.646634  Br118   -Pd2     -P1      :  86.839783
 Br118   -Pd2     -O2      : 174.401833  Br118   -Pd2     -C6      :  83.903388
 C104    -O2      -Pd2     : 131.890176  C8      -C3      -C4      : 121.778291
 F9      -C3      -C4      : 119.109417  F9      -C3      -C8      : 119.112057
 C5      -C4      -C3      : 118.484644  H10     -C4      -C3      : 119.770861
 H10     -C4      -C5      : 121.744054  C6      -C5      -C4      : 121.735635
 H13     -C5      -C4      : 119.204377  H13     -C5      -C6      : 119.059941
 C5      -C6      -Pd2     : 118.932304  C7      -C6      -Pd2     : 122.168976
 C7      -C6      -C5      : 117.833201  C8      -C7      -C6      : 121.397818
 H11     -C7      -C6      : 120.186636  H11     -C7      -C8      : 118.393283
 C7      -C8      -C3      : 118.764113  H12     -C8      -C3      : 119.556032
 H12     -C8      -C7      : 121.666403  C15     -C14     -P1      : 119.481613
 C19     -C14     -P1      : 112.007777  C19     -C14     -C15     : 108.735859
 H51     -C14     -P1      : 101.429996  H51     -C14     -C15     : 106.069526
 H51     -C14     -C19     : 108.208249  C16     -C15     -C14     : 109.737436
 H52     -C15     -C14     : 111.333626  H52     -C15     -C16     : 109.431617
 H53     -C15     -C14     : 109.270610  H53     -C15     -C16     : 109.892967
 H53     -C15     -H52     : 107.134622  C17     -C16     -C15     : 111.762815
 H54     -C16     -C15     : 109.763716  H54     -C16     -C17     : 110.304177
 H55     -C16     -C15     : 109.086647  H55     -C16     -C17     : 109.382318
 H55     -C16     -H54     : 106.387100  C18     -C17     -C16     : 111.312287
 H56     -C17     -C16     : 110.501453  H56     -C17     -C18     : 110.427322
 H57     -C17     -C16     : 108.946144  H57     -C17     -C18     : 108.847527
 H57     -C17     -H56     : 106.669212  C19     -C18     -C17     : 110.850939
 H58     -C18     -C17     : 110.577994  H58     -C18     -C19     : 109.851002
 H59     -C18     -C17     : 109.741140  H59     -C18     -C19     : 109.308942
 H59     -C18     -H58     : 106.404493  C18     -C19     -C14     : 111.325326
 H60     -C19     -C14     : 112.157177  H60     -C19     -C18     : 110.028554
 H61     -C19     -C14     : 108.366246  H61     -C19     -C18     : 109.775464
 H61     -C19     -H60     : 104.967379  C21     -C20     -P1      : 111.143663
 C25     -C20     -P1      : 111.727611  C25     -C20     -C21     : 109.311798
 H62     -C20     -P1      : 106.932825  H62     -C20     -C21     : 108.421848
 H62     -C20     -C25     : 109.208164  C22     -C21     -C20     : 109.601451
 H63     -C21     -C20     : 108.513118  H63     -C21     -C22     : 110.548435
 H64     -C21     -C20     : 110.819674  H64     -C21     -C22     : 109.590090
 H64     -C21     -H63     : 107.747007  C23     -C22     -C21     : 111.625713
 H65     -C22     -C21     : 108.688339  H65     -C22     -C23     : 109.466810
 H66     -C22     -C21     : 110.079935  H66     -C22     -C23     : 110.196278
 H66     -C22     -H65     : 106.643230  C24     -C23     -C22     : 111.864236
 H67     -C23     -C22     : 108.511084  H67     -C23     -C24     : 109.027488
 H68     -C23     -C22     : 110.351470  H68     -C23     -C24     : 110.288665
 H68     -C23     -H67     : 106.632611  C25     -C24     -C23     : 111.706417
 H69     -C24     -C23     : 109.267431  H69     -C24     -C25     : 109.349828
 H70     -C24     -C23     : 110.000026  H70     -C24     -C25     : 109.810982
 H70     -C24     -H69     : 106.567653  C24     -C25     -C20     : 109.519784
 H71     -C25     -C20     : 107.740882  H71     -C25     -C24     : 111.425153
 H72     -C25     -C20     : 111.658568  H72     -C25     -C24     : 109.893078
 H72     -C25     -H71     : 106.569728  C27     -C26     -P1      : 122.531533
 C31     -C26     -P1      : 119.670954  C31     -C26     -C27     : 117.749560
 C28     -C27     -C26     : 119.739167  C32     -C27     -C26     : 125.246584
 C32     -C27     -C28     : 115.012280  C29     -C28     -C27     : 121.043727
 O49     -C28     -C27     : 115.627452  O49     -C28     -C29     : 123.325695
 C30     -C29     -C28     : 119.504285  H73     -C29     -C28     : 121.357706
 H73     -C29     -C30     : 119.133597  C31     -C30     -C29     : 120.344175
 H74     -C30     -C29     : 118.848370  H74     -C30     -C31     : 120.806009
 C30     -C31     -C26     : 121.450849  O47     -C31     -C26     : 116.636284
 O47     -C31     -C30     : 121.896601  C33     -C32     -C27     : 119.667311
 C37     -C32     -C27     : 120.157785  C37     -C32     -C33     : 119.747533
 C34     -C33     -C32     : 119.232330  C42     -C33     -C32     : 120.997232
 C42     -C33     -C34     : 119.535448  C35     -C34     -C33     : 122.301860
 H75     -C34     -C33     : 118.159927  H75     -C34     -C35     : 119.538184
 C36     -C35     -C34     : 117.344613  C45     -C35     -C34     : 123.294057
 C45     -C35     -C36     : 119.360577  C37     -C36     -C35     : 122.693011
 H76     -C36     -C35     : 118.813564  H76     -C36     -C37     : 118.487277
 C36     -C37     -C32     : 118.560973  C38     -C37     -C32     : 122.597534
 C38     -C37     -C36     : 118.706123  C39     -C38     -C37     : 109.300615
 C40     -C38     -C37     : 115.167342  C40     -C38     -C39     : 108.579129
 H77     -C38     -C37     : 107.865635  H77     -C38     -C39     : 107.615146
 H77     -C38     -C40     : 108.061115  H78     -C39     -C38     : 110.280399
 H79     -C39     -C38     : 110.829782  H79     -C39     -H78     : 108.093939
 H80     -C39     -C38     : 110.571973  H80     -C39     -H78     : 107.981795
 H80     -C39     -H79     : 108.998161  H81     -C40     -C38     : 109.555257
 H82     -C40     -C38     : 113.922735  H82     -C40     -H81     : 107.092757
 H83     -C40     -C38     : 111.837911  H83     -C40     -H81     : 107.128205
 H83     -C40     -H82     : 106.974689  H84     -C41     -C42     : 110.191256
 H85     -C41     -C42     : 110.375636  H85     -C41     -H84     : 107.954606
 H86     -C41     -C42     : 111.474290  H86     -C41     -H84     : 107.850997
 H86     -C41     -H85     : 108.889546  C41     -C42     -C33     : 109.175502
 C43     -C42     -C33     : 113.944906  C43     -C42     -C41     : 110.878494
 H87     -C42     -C33     : 107.610334  H87     -C42     -C41     : 107.728536
 H87     -C42     -C43     : 107.256070  H88     -C43     -C42     : 111.849592
 H89     -C43     -C42     : 109.422805  H89     -C43     -H88     : 106.934841
 H90     -C43     -C42     : 110.963114  H90     -C43     -H88     : 109.082853
 H90     -C43     -H89     : 108.450666  H91     -C44     -C45     : 111.154884
 H92     -C44     -C45     : 112.724196  H92     -C44     -H91     : 107.905645
 H93     -C44     -C45     : 109.860408  H93     -C44     -H91     : 107.505432
 H93     -C44     -H92     : 107.483371  C44     -C45     -C35     : 114.441489
 C46     -C45     -C35     : 111.257296  C46     -C45     -C44     : 109.268392
 H94     -C45     -C35     : 106.491242  H94     -C45     -C44     : 107.327374
 H94     -C45     -C46     : 107.740123  H95     -C46     -C45     : 110.331513
 H96     -C46     -C45     : 112.419645  H96     -C46     -H95     : 107.718727
 H97     -C46     -C45     : 110.453594  H97     -C46     -H95     : 108.103349
 H97     -C46     -H96     : 107.659604  C48     -O47     -C31     : 119.402822
 H98     -C48     -O47     : 105.782184  H99     -C48     -O47     : 111.512982
 H99     -C48     -H98     : 109.264965  H100    -C48     -O47     : 111.683453
 H100    -C48     -H98     : 109.031243  H100    -C48     -H99     : 109.459795
 C50     -O49     -C28     : 118.488846  H101    -C50     -O49     : 105.784162
 H102    -C50     -O49     : 111.577985  H102    -C50     -H101    : 109.202957
 H103    -C50     -O49     : 111.628432  H103    -C50     -H101    : 109.232725
 H103    -C50     -H102    : 109.318789  C105    -C104    -O2      : 112.981345
 C106    -C104    -O2      : 112.174033  C106    -C104    -C105    : 109.738395
 C107    -C104    -O2      : 105.114449  C107    -C104    -C105    : 107.973190
 C107    -C104    -C106    : 108.593087  H108    -C105    -C104    : 110.949598
 H109    -C105    -C104    : 111.009518  H109    -C105    -H108    : 108.260253
 H110    -C105    -C104    : 109.956172  H110    -C105    -H108    : 108.175980
 H110    -C105    -H109    : 108.399059  H114    -C106    -C104    : 111.472604
 H115    -C106    -C104    : 110.165145  H115    -C106    -H114    : 108.334445
 H116    -C106    -C104    : 109.963645  H116    -C106    -H114    : 108.449036
 H116    -C106    -H115    : 108.376139  H111    -C107    -C104    : 110.194474
 H112    -C107    -C104    : 110.011113  H112    -C107    -H111    : 108.229372
 H113    -C107    -C104    : 111.462037  H113    -C107    -H111    : 108.173934
 H113    -C107    -H112    : 108.685590
 
  torsional angles:
 
 P1      -Pd2     -O2      -C104    :-158.622021
 P1      -Pd2     -C6      -C5      :-122.244923
 P1      -Pd2     -C6      -C7      :  45.690269
 P1      -C14     -C15     -C16     : 170.173965
 P1      -C14     -C15     -H52     :  48.870170
 P1      -C14     -C15     -H53     : -69.268786
 P1      -C14     -C19     -C18     :-165.920956
 P1      -C14     -C19     -H60     : -42.144513
 P1      -C14     -C19     -H61     :  73.261338
 P1      -C20     -C21     -C22     :-174.925922
 P1      -C20     -C21     -H63     :  64.265675
 P1      -C20     -C21     -H64     : -53.848759
 P1      -C20     -C25     -C24     : 175.385037
 P1      -C20     -C25     -H71     : -63.260746
 P1      -C20     -C25     -H72     :  53.432442
 P1      -C26     -C27     -C28     : 172.877516
 P1      -C26     -C27     -C32     :  -6.585506
 P1      -C26     -C31     -C30     :-173.208589
 P1      -C26     -C31     -O47     :   8.231971
 Pd2     -P1      -C14     -C15     :-126.678039
 Pd2     -P1      -C14     -C19     : 104.530384
 Pd2     -P1      -C14     -H51     : -10.656205
 Pd2     -P1      -C20     -C21     : -85.039950
 Pd2     -P1      -C20     -C25     :  37.359405
 Pd2     -P1      -C20     -H62     : 156.801115
 Pd2     -P1      -C26     -C27     :  -0.294729
 Pd2     -P1      -C26     -C31     : 177.128811
 Pd2     -O2      -C104    -C105    : -68.210859
 Pd2     -O2      -C104    -C106    :  56.468503
 Pd2     -O2      -C104    -C107    : 174.290514
 Pd2     -C6      -C5      -C4      : 167.946619
 Pd2     -C6      -C5      -H13     : -12.131935
 Pd2     -C6      -C7      -C8      :-167.975344
 Pd2     -C6      -C7      -H11     :  10.280644
 O2      -Pd2     -P1      -C14     : 134.890566
 O2      -Pd2     -P1      -C20     :  21.831873
 O2      -Pd2     -P1      -C26     :-107.053961
 O2      -Pd2     -C6      -C5      :  90.754242
 O2      -Pd2     -C6      -C7      :-101.310566
 O2      -C104    -C105    -H108    :  68.337221
 O2      -C104    -C105    -H109    :-171.235593
 O2      -C104    -C105    -H110    : -51.291035
 O2      -C104    -C106    -H114    : 172.904397
 O2      -C104    -C106    -H115    : -66.793886
 O2      -C104    -C106    -H116    :  52.593417
 O2      -C104    -C107    -H111    : -64.441816
 O2      -C104    -C107    -H112    :  54.812301
 O2      -C104    -C107    -H113    : 175.445687
 C3      -C4      -C5      -C6      :   0.232929
 C3      -C4      -C5      -H13     :-179.688406
 C3      -C8      -C7      -C6      :   0.604010
 C3      -C8      -C7      -H11     :-177.682344
 C4      -C3      -C8      -C7      :  -0.904004
 C4      -C3      -C8      -H12     :-179.592361
 C4      -C5      -C6      -C7      :  -0.511943
 C5      -C4      -C3      -C8      :   0.493812
 C5      -C4      -C3      -F9      :-179.328331
 C5      -C6      -Pd2     -Br118   : -83.827332
 C5      -C6      -C7      -C8      :   0.086098
 C5      -C6      -C7      -H11     : 178.342086
 C6      -Pd2     -P1      -C14     : -12.411836
 C6      -Pd2     -P1      -C20     :-125.470529
 C6      -Pd2     -P1      -C26     : 105.643637
 C6      -Pd2     -O2      -C104    :  14.987378
 C6      -C5      -C4      -H10     : 179.990708
 C6      -C7      -C8      -H12     : 179.263459
 C7      -C6      -Pd2     -Br118   :  84.107860
 C7      -C6      -C5      -H13     : 179.409503
 C7      -C8      -C3      -F9      : 178.918135
 C8      -C3      -C4      -H10     :-179.268881
 F9      -C3      -C4      -H10     :   0.908975
 F9      -C3      -C8      -H12     :   0.229778
 H10     -C4      -C5      -H13     :   0.069373
 H11     -C7      -C8      -H12     :   0.977105
 C14     -P1      -Pd2     -Br118   : -50.641485
 C14     -P1      -C20     -C21     : 163.400679
 C14     -P1      -C20     -C25     : -74.199966
 C14     -P1      -C20     -H62     :  45.241744
 C14     -P1      -C26     -C27     : 117.566226
 C14     -P1      -C26     -C31     : -65.010235
 C14     -C15     -C16     -C17     :  57.840090
 C14     -C15     -C16     -H54     :-179.444764
 C14     -C15     -C16     -H55     : -63.241884
 C14     -C19     -C18     -C17     : -56.788540
 C14     -C19     -C18     -H58     :-179.294278
 C14     -C19     -C18     -H59     :  64.304886
 C15     -C14     -P1      -C20     :  -8.753917
 C15     -C14     -P1      -C26     : 100.196129
 C15     -C14     -C19     -C18     :  59.842904
 C15     -C14     -C19     -H60     :-176.380652
 C15     -C14     -C19     -H61     : -60.974802
 C15     -C16     -C17     -C18     : -54.465754
 C15     -C16     -C17     -H56     :-177.548346
 C15     -C16     -C17     -H57     :  65.570641
 C16     -C15     -C14     -C19     : -59.561710
 C16     -C15     -C14     -H51     :  56.610886
 C16     -C17     -C18     -C19     :  53.284410
 C16     -C17     -C18     -H58     : 175.366602
 C16     -C17     -C18     -H59     : -67.553598
 C17     -C16     -C15     -H52     :-179.719463
 C17     -C16     -C15     -H53     : -62.339330
 C17     -C18     -C19     -H60     : 178.234739
 C17     -C18     -C19     -H61     :  63.198840
 C18     -C17     -C16     -H54     :-176.872277
 C18     -C17     -C16     -H55     :  66.444501
 C18     -C19     -C14     -H51     : -54.945621
 C19     -C14     -P1      -C20     :-137.545494
 C19     -C14     -P1      -C26     : -28.595448
 C19     -C14     -C15     -H52     : 179.134495
 C19     -C14     -C15     -H53     :  60.995539
 C19     -C18     -C17     -H56     : 176.409432
 C19     -C18     -C17     -H57     : -66.810302
 C20     -P1      -Pd2     -Br118   :-163.700178
 C20     -P1      -C14     -H51     : 107.267918
 C20     -P1      -C26     -C27     :-132.364230
 C20     -P1      -C26     -C31     :  45.059310
 C20     -C21     -C22     -C23     : -56.961247
 C20     -C21     -C22     -H65     :  63.872475
 C20     -C21     -C22     -H66     :-179.667705
 C20     -C25     -C24     -C23     :  56.792888
 C20     -C25     -C24     -H69     : -64.286065
 C20     -C25     -C24     -H70     : 179.115413
 C21     -C20     -P1      -C26     :  54.789770
 C21     -C20     -C25     -C24     : -61.172978
 C21     -C20     -C25     -H71     :  60.181239
 C21     -C20     -C25     -H72     : 176.874427
 C21     -C22     -C23     -C24     :  52.556086
 C21     -C22     -C23     -H67     : -67.762474
 C21     -C22     -C23     -H68     : 175.741227
 C22     -C21     -C20     -C25     :  61.287207
 C22     -C21     -C20     -H62     : -57.670649
 C22     -C23     -C24     -C25     : -52.539106
 C22     -C23     -C24     -H69     :  68.587698
 C22     -C23     -C24     -H70     :-174.753215
 C23     -C22     -C21     -H63     :  62.605991
 C23     -C22     -C21     -H64     :-178.778401
 C23     -C24     -C25     -H71     : -62.311518
 C23     -C24     -C25     -H72     : 179.797766
 C24     -C23     -C22     -H65     : -67.822502
 C24     -C23     -C22     -H66     : 175.196020
 C24     -C25     -C20     -H62     :  57.295789
 C25     -C20     -P1      -C26     : 177.189126
 C25     -C20     -C21     -H63     : -59.521196
 C25     -C20     -C21     -H64     :-177.635630
 C25     -C24     -C23     -H67     :  67.477539
 C25     -C24     -C23     -H68     :-175.759784
 C26     -P1      -Pd2     -Br118   :  67.413989
 C26     -P1      -C14     -H51     :-143.782036
 C26     -P1      -C20     -H62     : -63.369164
 C26     -C27     -C28     -C29     :   1.992816
 C26     -C27     -C28     -O49     :-177.384705
 C26     -C27     -C32     -C33     :  87.455100
 C26     -C27     -C32     -C37     :-100.065159
 C26     -C31     -C30     -C29     :  -1.339684
 C26     -C31     -C30     -H74     : 179.102766
 C26     -C31     -O47     -C48     :-172.811725
 C27     -C26     -C31     -C30     :   4.336996
 C27     -C26     -C31     -O47     :-174.222443
 C27     -C28     -C29     -C30     :   1.103585
 C27     -C28     -C29     -H73     :-179.667269
 C27     -C28     -O49     -C50     : 178.813916
 C27     -C32     -C33     -C34     : 175.857584
 C27     -C32     -C33     -C42     :   1.453032
 C27     -C32     -C37     -C36     :-176.545397
 C27     -C32     -C37     -C38     :  -0.833049
 C28     -C27     -C26     -C31     :  -4.592951
 C28     -C27     -C32     -C33     : -92.030395
 C28     -C27     -C32     -C37     :  80.449346
 C28     -C29     -C30     -C31     :  -1.433874
 C28     -C29     -C30     -H74     : 178.132261
 C28     -O49     -C50     -H101    :-179.466414
 C28     -O49     -C50     -H102    : -60.823074
 C28     -O49     -C50     -H103    :  61.827258
 C29     -C28     -C27     -C32     :-178.491103
 C29     -C28     -O49     -C50     :  -0.547800
 C29     -C30     -C31     -O47     : 177.143609
 C30     -C29     -C28     -O49     :-179.568113
 C30     -C31     -O47     -C48     :   8.635769
 C31     -C26     -C27     -C32     : 175.944027
 C31     -C30     -C29     -H73     : 179.319725
 C31     -O47     -C48     -H98     : 175.462705
 C31     -O47     -C48     -H99     :  56.780984
 C31     -O47     -C48     -H100    : -66.044954
 C32     -C27     -C28     -O49     :   2.131377
 C32     -C33     -C34     -C35     :  -0.576961
 C32     -C33     -C34     -H75     : 179.485563
 C32     -C33     -C42     -C41     :  94.999876
 C32     -C33     -C42     -C43     :-140.438990
 C32     -C33     -C42     -H87     : -21.655991
 C32     -C37     -C36     -C35     :   2.116995
 C32     -C37     -C36     -H76     :-178.796450
 C32     -C37     -C38     -C39     :-102.861921
 C32     -C37     -C38     -C40     : 134.621258
 C32     -C37     -C38     -H77     :  13.867002
 C33     -C32     -C37     -C36     :  -4.071701
 C33     -C32     -C37     -C38     : 171.640647
 C33     -C34     -C35     -C36     :  -1.383551
 C33     -C34     -C35     -C45     : 178.934921
 C33     -C42     -C41     -H84     :  65.255247
 C33     -C42     -C41     -H85     :-175.603820
 C33     -C42     -C41     -H86     : -54.457425
 C33     -C42     -C43     -H88     : -66.499944
 C33     -C42     -C43     -H89     : 175.195972
 C33     -C42     -C43     -H90     :  55.561570
 C34     -C33     -C32     -C37     :   3.346700
 C34     -C33     -C42     -C41     : -79.387929
 C34     -C33     -C42     -C43     :  45.173206
 C34     -C33     -C42     -H87     : 163.956204
 C34     -C35     -C36     -C37     :   0.591073
 C34     -C35     -C36     -H76     :-178.492635
 C34     -C35     -C45     -C44     :  -0.621012
 C34     -C35     -C45     -C46     : 123.833354
 C34     -C35     -C45     -H94     :-119.028258
 C35     -C34     -C33     -C42     : 173.910545
 C35     -C36     -C37     -C38     :-173.764886
 C35     -C45     -C44     -H91     :  64.058022
 C35     -C45     -C44     -H92     : -57.239079
 C35     -C45     -C44     -H93     :-177.079631
 C35     -C45     -C46     -H95     : -63.273265
 C35     -C45     -C46     -H96     :  56.990161
 C35     -C45     -C46     -H97     : 177.263122
 C36     -C35     -C34     -H75     : 178.553091
 C36     -C35     -C45     -C44     : 179.703565
 C36     -C35     -C45     -C46     : -55.842069
 C36     -C35     -C45     -H94     :  61.296319
 C36     -C37     -C38     -C39     :  72.844482
 C36     -C37     -C38     -C40     : -49.672340
 C36     -C37     -C38     -H77     :-170.426596
 C37     -C32     -C33     -C42     :-171.057852
 C37     -C36     -C35     -C45     :-179.714358
 C37     -C38     -C39     -H78     : -66.886817
 C37     -C38     -C39     -H79     :  52.772626
 C37     -C38     -C39     -H80     : 173.757978
 C37     -C38     -C40     -H81     : 178.418940
 C37     -C38     -C40     -H82     : -61.660564
 C37     -C38     -C40     -H83     :  59.795946
 C38     -C37     -C36     -H76     :   5.321669
 C39     -C38     -C40     -H81     :  55.516610
 C39     -C38     -C40     -H82     : 175.437106
 C39     -C38     -C40     -H83     : -63.106384
 C40     -C38     -C39     -H78     :  59.488855
 C40     -C38     -C39     -H79     : 179.148297
 C40     -C38     -C39     -H80     : -59.866350
 C41     -C42     -C43     -H88     :  57.144398
 C41     -C42     -C43     -H89     : -61.159687
 C41     -C42     -C43     -H90     : 179.205911
 C42     -C33     -C34     -H75     :  -6.026930
 C43     -C42     -C41     -H84     : -61.082412
 C43     -C42     -C41     -H85     :  58.058521
 C43     -C42     -C41     -H86     : 179.204916
 C44     -C45     -C46     -H95     :  64.049923
 C44     -C45     -C46     -H96     :-175.686651
 C44     -C45     -C46     -H97     : -55.413690
 C45     -C35     -C34     -H75     :  -1.128438
 C45     -C35     -C36     -H76     :   1.201934
 C46     -C45     -C44     -H91     : -61.445855
 C46     -C45     -C44     -H92     : 177.257044
 C46     -C45     -C44     -H93     :  57.416492
 O47     -C31     -C30     -H74     :  -2.413942
 O49     -C28     -C29     -H73     :  -0.338968
 H51     -C14     -C15     -H52     : -64.692910
 H51     -C14     -C15     -H53     : 177.168134
 H51     -C14     -C19     -H60     :  68.830822
 H51     -C14     -C19     -H61     :-175.763327
 H52     -C15     -C16     -H54     : -57.004318
 H52     -C15     -C16     -H55     :  59.198562
 H53     -C15     -C16     -H54     :  60.375816
 H53     -C15     -C16     -H55     : 176.578695
 H54     -C16     -C17     -H56     :  60.045132
 H54     -C16     -C17     -H57     : -56.835882
 H55     -C16     -C17     -H56     : -56.638090
 H55     -C16     -C17     -H57     :-173.519103
 H56     -C17     -C18     -H58     : -61.508376
 H56     -C17     -C18     -H59     :  55.571424
 H57     -C17     -C18     -H58     :  55.271889
 H57     -C17     -C18     -H59     : 172.351690
 H58     -C18     -C19     -H60     :  55.729001
 H58     -C18     -C19     -H61     : -59.306898
 H59     -C18     -C19     -H60     : -60.671835
 H59     -C18     -C19     -H61     :-175.707734
 H62     -C20     -C21     -H63     :-178.479052
 H62     -C20     -C21     -H64     :  63.406514
 H62     -C20     -C25     -H71     : 178.650007
 H62     -C20     -C25     -H72     : -64.656806
 H63     -C21     -C22     -H65     :-176.560287
 H63     -C21     -C22     -H66     : -60.100467
 H64     -C21     -C22     -H65     : -57.944679
 H64     -C21     -C22     -H66     :  58.515141
 H65     -C22     -C23     -H67     : 171.858938
 H65     -C22     -C23     -H68     :  55.362639
 H66     -C22     -C23     -H67     :  54.877460
 H66     -C22     -C23     -H68     : -61.618839
 H67     -C23     -C24     -H69     :-171.395656
 H67     -C23     -C24     -H70     : -54.736569
 H68     -C23     -C24     -H69     : -54.632980
 H68     -C23     -C24     -H70     :  62.026108
 H69     -C24     -C25     -H71     : 176.609529
 H69     -C24     -C25     -H72     :  58.718813
 H70     -C24     -C25     -H71     :  60.011006
 H70     -C24     -C25     -H72     : -57.879710
 H73     -C29     -C30     -H74     :  -1.114140
 H77     -C38     -C39     -H78     : 176.225674
 H77     -C38     -C39     -H79     : -64.114883
 H77     -C38     -C39     -H80     :  56.870469
 H77     -C38     -C40     -H81     : -60.933540
 H77     -C38     -C40     -H82     :  58.986957
 H77     -C38     -C40     -H83     :-179.556533
 H84     -C41     -C42     -H87     :-178.164018
 H85     -C41     -C42     -H87     : -59.023085
 H86     -C41     -C42     -H87     :  62.123310
 H87     -C42     -C43     -H88     : 174.515403
 H87     -C42     -C43     -H89     :  56.211318
 H87     -C42     -C43     -H90     : -63.423084
 H91     -C44     -C45     -H94     :-178.009389
 H92     -C44     -C45     -H94     :  60.693510
 H93     -C44     -C45     -H94     : -59.147042
 H94     -C45     -C46     -H95     :-179.648874
 H94     -C45     -C46     -H96     : -59.385447
 H94     -C45     -C46     -H97     :  60.887514
 C104    -O2      -Pd2     -Br118   : 120.724670
 C105    -C104    -C106    -H114    : -60.642200
 C105    -C104    -C106    -H115    :  59.659518
 C105    -C104    -C106    -H116    : 179.046821
 C105    -C104    -C107    -H111    : 174.708488
 C105    -C104    -C107    -H112    : -66.037395
 C105    -C104    -C107    -H113    :  54.595991
 C106    -C104    -C105    -H108    : -57.657933
 C106    -C104    -C105    -H109    :  62.769253
 C106    -C104    -C105    -H110    :-177.286189
 C106    -C104    -C107    -H111    :  55.778931
 C106    -C104    -C107    -H112    : 175.033048
 C106    -C104    -C107    -H113    : -64.333566
 C107    -C104    -C105    -H108    :-175.856267
 C107    -C104    -C105    -H109    : -55.429081
 C107    -C104    -C105    -H110    :  64.515477
 C107    -C104    -C106    -H114    :  57.171036
 C107    -C104    -C106    -H115    : 177.472753
 C107    -C104    -C106    -H116    : -63.139944
 
  nuclear repulsion energy.......          8907.070366102 hartrees
  
  Detected an organometallic with only one TM atom. 
  
  Oxidation state on metal       2 is     2
  Formal multiplet on metal      2 is     1
  Formal charge on ligand        3 is    -1
  Formal multiplet on ligand     3 is     1
  Formal charge on ligand        4 is    -1
  Formal multiplet on ligand     4 is     1
  Formal charge on ligand        5 is    -1
  Formal multiplet on ligand     5 is     1
  
 
  Will use High-Quality Initial guess for organometallics
       including d-d repulsion (iguess=30)
 
 Non-default options chosen:
   SCF calculation type: DFT(b3pw91-d3)              
   DFT=Becke_3_Parameter/HF+Slater+Becke88+PW91+PW-GGAIIC (B3PW91-D3)
   Geometry will be optimized in redundant internal coordinates
   Solvation energy will be computed using PBF
     -solute cavity energy will not be included
     -surface area terms will not be included
   Vibrational frequencies and related properties will be computed
      from analytic second derivatives
   IR intensities will be computed
   Thermochemical properties will be computed
   Maximum number of geometry steps: 100
   Scaling standard convergence criteria by a factor of   5.00
   Solvent: benzene                                                         
   Internal dielectric constant:    1.000
   Continuum dielectric constant:   2.283
   Solvent probe molecule radius:   2.600
  
 Non-default print settings:
     11=  2
  
 Temporary integer options set:
     21= -1  73=  2
  
  atom       vdw   vdw2    cov     mass  grid  daf  charge   basis
  P1        2.147  2.074  1.060   30.974    Y    Y      Y    ps_6-31g*
  Pd2       1.450  1.450  1.280  105.903    Y    Y      Y    lacv3p*
  O2        1.702  1.600  0.730   15.995    Y    Y      Y    ps_6-31g*
  C3        1.949  1.900  0.770   12.000    Y    Y      Y    ps_6-31g*
  C4        1.949  1.900  0.770   12.000    Y    Y      Y    ps_6-31g*
  C5        1.949  1.900  0.770   12.000    Y    Y      Y    ps_6-31g*
  C6        1.949  1.900  0.770   12.000    Y    Y      Y    ps_6-31g*
  C7        1.949  1.900  0.770   12.000    Y    Y      Y    ps_6-31g*
  C8        1.949  1.900  0.770   12.000    Y    Y      Y    ps_6-31g*
  F9        1.736  1.682  0.720   18.998    Y    Y      Y    ps_6-31g*
  H10       1.597  1.150  0.320    1.008    Y    Y      Y    ps_6-31g*
  H11       1.597  1.150  0.320    1.008    Y    Y      Y    ps_6-31g*
  H12       1.597  1.150  0.320    1.008    Y    Y      Y    ps_6-31g*
  H13       1.597  1.150  0.320    1.008    Y    Y      Y    ps_6-31g*
  C14       1.949  1.900  0.770   12.000    Y    Y      Y    ps_6-31g*
  C15       1.949  1.900  0.770   12.000    Y    Y      Y    ps_6-31g*
  C16       1.949  1.900  0.770   12.000    Y    Y      Y    ps_6-31g*
  C17       1.949  1.900  0.770   12.000    Y    Y      Y    ps_6-31g*
  C18       1.949  1.900  0.770   12.000    Y    Y      Y    ps_6-31g*
  C19       1.949  1.900  0.770   12.000    Y    Y      Y    ps_6-31g*
  C20       1.949  1.900  0.770   12.000    Y    Y      Y    ps_6-31g*
  C21       1.949  1.900  0.770   12.000    Y    Y      Y    ps_6-31g*
  C22       1.949  1.900  0.770   12.000    Y    Y      Y    ps_6-31g*
  C23       1.949  1.900  0.770   12.000    Y    Y      Y    ps_6-31g*
  C24       1.949  1.900  0.770   12.000    Y    Y      Y    ps_6-31g*
  C25       1.949  1.900  0.770   12.000    Y    Y      Y    ps_6-31g*
  C26       1.949  1.900  0.770   12.000    Y    Y      Y    ps_6-31g*
  C27       1.949  1.900  0.770   12.000    Y    Y      Y    ps_6-31g*
  C28       1.949  1.900  0.770   12.000    Y    Y      Y    ps_6-31g*
  C29       1.949  1.900  0.770   12.000    Y    Y      Y    ps_6-31g*
  C30       1.949  1.900  0.770   12.000    Y    Y      Y    ps_6-31g*
  C31       1.949  1.900  0.770   12.000    Y    Y      Y    ps_6-31g*
  C32       1.949  1.900  0.770   12.000    Y    Y      Y    ps_6-31g*
  C33       1.949  1.900  0.770   12.000    Y    Y      Y    ps_6-31g*
  C34       1.949  1.900  0.770   12.000    Y    Y      Y    ps_6-31g*
  C35       1.949  1.900  0.770   12.000    Y    Y      Y    ps_6-31g*
  C36       1.949  1.900  0.770   12.000    Y    Y      Y    ps_6-31g*
  C37       1.949  1.900  0.770   12.000    Y    Y      Y    ps_6-31g*
  C38       1.949  1.900  0.770   12.000    Y    Y      Y    ps_6-31g*
  C39       1.949  1.900  0.770   12.000    Y    Y      Y    ps_6-31g*
  C40       1.949  1.900  0.770   12.000    Y    Y      Y    ps_6-31g*
  C41       1.949  1.900  0.770   12.000    Y    Y      Y    ps_6-31g*
  C42       1.949  1.900  0.770   12.000    Y    Y      Y    ps_6-31g*
  C43       1.949  1.900  0.770   12.000    Y    Y      Y    ps_6-31g*
  C44       1.949  1.900  0.770   12.000    Y    Y      Y    ps_6-31g*
  C45       1.949  1.900  0.770   12.000    Y    Y      Y    ps_6-31g*
  C46       1.949  1.900  0.770   12.000    Y    Y      Y    ps_6-31g*
  O47       1.702  1.600  0.730   15.995    Y    Y      Y    ps_6-31g*
  C48       1.949  1.900  0.770   12.000    Y    Y      Y    ps_6-31g*
  O49       1.702  1.600  0.730   15.995    Y    Y      Y    ps_6-31g*
  C50       1.949  1.900  0.770   12.000    Y    Y      Y    ps_6-31g*
  H51       1.597  1.150  0.320    1.008    Y    Y      Y    ps_6-31g*
  H52       1.597  1.150  0.320    1.008    Y    Y      Y    ps_6-31g*
  H53       1.597  1.150  0.320    1.008    Y    Y      Y    ps_6-31g*
  H54       1.597  1.150  0.320    1.008    Y    Y      Y    ps_6-31g*
  H55       1.597  1.150  0.320    1.008    Y    Y      Y    ps_6-31g*
  H56       1.597  1.150  0.320    1.008    Y    Y      Y    ps_6-31g*
  H57       1.597  1.150  0.320    1.008    Y    Y      Y    ps_6-31g*
  H58       1.597  1.150  0.320    1.008    Y    Y      Y    ps_6-31g*
  H59       1.597  1.150  0.320    1.008    Y    Y      Y    ps_6-31g*
  H60       1.597  1.150  0.320    1.008    Y    Y      Y    ps_6-31g*
  H61       1.597  1.150  0.320    1.008    Y    Y      Y    ps_6-31g*
  H62       1.597  1.150  0.320    1.008    Y    Y      Y    ps_6-31g*
  H63       1.597  1.150  0.320    1.008    Y    Y      Y    ps_6-31g*
  H64       1.597  1.150  0.320    1.008    Y    Y      Y    ps_6-31g*
  H65       1.597  1.150  0.320    1.008    Y    Y      Y    ps_6-31g*
  H66       1.597  1.150  0.320    1.008    Y    Y      Y    ps_6-31g*
  H67       1.597  1.150  0.320    1.008    Y    Y      Y    ps_6-31g*
  H68       1.597  1.150  0.320    1.008    Y    Y      Y    ps_6-31g*
  H69       1.597  1.150  0.320    1.008    Y    Y      Y    ps_6-31g*
  H70       1.597  1.150  0.320    1.008    Y    Y      Y    ps_6-31g*
  H71       1.597  1.150  0.320    1.008    Y    Y      Y    ps_6-31g*
  H72       1.597  1.150  0.320    1.008    Y    Y      Y    ps_6-31g*
  H73       1.597  1.150  0.320    1.008    Y    Y      Y    ps_6-31g*
  H74       1.597  1.150  0.320    1.008    Y    Y      Y    ps_6-31g*
  H75       1.597  1.150  0.320    1.008    Y    Y      Y    ps_6-31g*
  H76       1.597  1.150  0.320    1.008    Y    Y      Y    ps_6-31g*
  H77       1.597  1.150  0.320    1.008    Y    Y      Y    ps_6-31g*
  H78       1.597  1.150  0.320    1.008    Y    Y      Y    ps_6-31g*
  H79       1.597  1.150  0.320    1.008    Y    Y      Y    ps_6-31g*
  H80       1.597  1.150  0.320    1.008    Y    Y      Y    ps_6-31g*
  H81       1.597  1.150  0.320    1.008    Y    Y      Y    ps_6-31g*
  H82       1.597  1.150  0.320    1.008    Y    Y      Y    ps_6-31g*
  H83       1.597  1.150  0.320    1.008    Y    Y      Y    ps_6-31g*
  H84       1.597  1.150  0.320    1.008    Y    Y      Y    ps_6-31g*
  H85       1.597  1.150  0.320    1.008    Y    Y      Y    ps_6-31g*
  H86       1.597  1.150  0.320    1.008    Y    Y      Y    ps_6-31g*
  H87       1.597  1.150  0.320    1.008    Y    Y      Y    ps_6-31g*
  H88       1.597  1.150  0.320    1.008    Y    Y      Y    ps_6-31g*
  H89       1.597  1.150  0.320    1.008    Y    Y      Y    ps_6-31g*
  H90       1.597  1.150  0.320    1.008    Y    Y      Y    ps_6-31g*
  H91       1.597  1.150  0.320    1.008    Y    Y      Y    ps_6-31g*
  H92       1.597  1.150  0.320    1.008    Y    Y      Y    ps_6-31g*
  H93       1.597  1.150  0.320    1.008    Y    Y      Y    ps_6-31g*
  H94       1.597  1.150  0.320    1.008    Y    Y      Y    ps_6-31g*
  H95       1.597  1.150  0.320    1.008    Y    Y      Y    ps_6-31g*
  H96       1.597  1.150  0.320    1.008    Y    Y      Y    ps_6-31g*
  H97       1.597  1.150  0.320    1.008    Y    Y      Y    ps_6-31g*
  H98       1.597  1.150  0.320    1.008    Y    Y      Y    ps_6-31g*
  H99       1.597  1.150  0.320    1.008    Y    Y      Y    ps_6-31g*
  H100      1.597  1.150  0.320    1.008    Y    Y      Y    ps_6-31g*
  H101      1.597  1.150  0.320    1.008    Y    Y      Y    ps_6-31g*
  H102      1.597  1.150  0.320    1.008    Y    Y      Y    ps_6-31g*
  H103      1.597  1.150  0.320    1.008    Y    Y      Y    ps_6-31g*
  C104      1.949  1.900  0.770   12.000    Y    Y      Y    ps_6-31g*
  C105      1.949  1.900  0.770   12.000    Y    Y      Y    ps_6-31g*
  C106      1.949  1.900  0.770   12.000    Y    Y      Y    ps_6-31g*
  C107      1.949  1.900  0.770   12.000    Y    Y      Y    ps_6-31g*
  H108      1.597  1.150  0.320    1.008    Y    Y      Y    ps_6-31g*
  H109      1.597  1.150  0.320    1.008    Y    Y      Y    ps_6-31g*
  H110      1.597  1.150  0.320    1.008    Y    Y      Y    ps_6-31g*
  H111      1.597  1.150  0.320    1.008    Y    Y      Y    ps_6-31g*
  H112      1.597  1.150  0.320    1.008    Y    Y      Y    ps_6-31g*
  H113      1.597  1.150  0.320    1.008    Y    Y      Y    ps_6-31g*
  H114      1.597  1.150  0.320    1.008    Y    Y      Y    ps_6-31g*
  H115      1.597  1.150  0.320    1.008    Y    Y      Y    ps_6-31g*
  H116      1.597  1.150  0.320    1.008    Y    Y      Y    ps_6-31g*
  Br118     2.095  2.095  1.140   78.918    Y    Y      Y    lav3p*
 
  atom      formal  2spin      esp    mulk    frag
  P1           0       0        Y    0.000       0
  Pd2          2       0        Y    0.000       0
  O2          -1       0        Y    0.000       0
  C3          -1       0        Y    0.000       0
  Br118       -1       0        Y    0.000       0
  
  end of program pre
   
 Time(pre)  user:       3.314  user+sys:       3.314  wallclock:       1.113
  
  start of program onee
  
  smallest eigenvalue of S:    2.898E-04
  number of canonical orbitals.....          874
  end of program onee
   
 Time(onee)  user:      18.703  user+sys:      18.703  wallclock:       4.822
  
  start of program hfig
  
  initial wavefunction generated automatically from atomic wavefunctions
  Only one state below 0.010000
  Skip d-d repulsion considerations 
 
  Irreducible     Total no   No of occupied orbitals 
  representation  orbitals   Shell_1  Shell_2    ...
  No Symm          874        205
  ------------------------
  Orbital occupation/shell    1.000
 
  end of program hfig
   
 Time(hfig)  user:       4.117  user+sys:       4.117  wallclock:       1.470
  
  start of program probe
  
  end of program probe
   
 Time(probe)  user:       2.221  user+sys:       2.221  wallclock:       0.692
  
  start of program grid
  
   grid     grid set  grid #  grid sym
  ------    --------  ------  --------
  coarse        0        0        1
  medium        2        1        1
  fine          0        0        1
  ultrafine     4        2        1
  charge       -1        3        1
  gradient      4        2        1
  density       0        0        1
  DFT-fine    -11        4        1
  DFT-med.    -10        5        1
  DFT-grad    -12        6        1
  DFT-der2     -8        7        1
  DFT-cphf     -9        8        1
  LMP2-enrg     4        2        1
  LMP2-grad     2        1        1
  DFT-cphf2   -15        9        1
  PBF-dens      0        0        1
  plotting      0        0        1
  Rel-grad    -17        0        1
  
  number of gridpoints: 
     atom           P1         Pd2          O2          C3          C4          C5          C6
  grid # 1         617         344         117          81          93          95         100
  grid # 2         439         306         455         335         321         325         387
  grid # 3           9         219           8          41          21          11           7
  grid # 4        8714        8714        8714        8714        8714        8714        8714
  grid # 5        1192        1192        1192        1192        1192        1192        1192
  grid # 6        9132        9132        5922        5922        5922        5922        5922
  grid # 7       23034       32968       23382       13950       13950       13950       13950
  grid # 8         722        1150         774         748         748         748         748
  grid # 9         366        2198         416         394         394         394         394
   
  number of gridpoints: 
     atom           C7          C8          F9         H10         H11         H12         H13
  grid # 1          95          94         585         109         114         115         106
  grid # 2         324         322         567         448         453         465         421
  grid # 3          14          31         371         245         253         412          44
  grid # 4        8714        8714        8714        8714        8714        8714        8714
  grid # 5        1192        1192        1192        1192        1192        1192        1192
  grid # 6        5922        5922        5922        5922        5922        5922        5922
  grid # 7       13950       13950       23190       15206       15206       15206       15206
  grid # 8         748         748         770         786         786         786         786
  grid # 9         394         394         420         420         420         420         420
   
  number of gridpoints: 
     atom          C14         C15         C16         C17         C18         C19         C20
  grid # 1          82          92          92          92          92          91          79
  grid # 2         331         278         278         279         279         280         326
  grid # 3           6           6           6           6           6           6           6
  grid # 4        8714        8714        8714        8714        8714        8714        8714
  grid # 5        1192        1192        1192        1192        1192        1192        1192
  grid # 6        5922        5922        5922        5922        5922        5922        5922
  grid # 7       13950       13950       13950       13950       13950       13950       13950
  grid # 8         748         748         748         748         748         748         748
  grid # 9         394         394         394         394         394         394         394
   
  number of gridpoints: 
     atom          C21         C22         C23         C24         C25         C26         C27
  grid # 1          90          92          92          92          90          92          98
  grid # 2         277         279         281         282         279         387         348
  grid # 3           6           6           6           6           6           8           6
  grid # 4        8714        8714        8714        8714        8714        8714        8714
  grid # 5        1192        1192        1192        1192        1192        1192        1192
  grid # 6        5922        5922        5922        5922        5922        5922        5922
  grid # 7       13950       13950       13950       13950       13950       13950       13950
  grid # 8         748         748         748         748         748         748         748
  grid # 9         394         394         394         394         394         394         394
   
  number of gridpoints: 
     atom          C28         C29         C30         C31         C32         C33         C34
  grid # 1          92          96          95          92         100          99          95
  grid # 2         346         323         324         342         361         362         324
  grid # 3          14          33          29           9           8          10          17
  grid # 4        8714        8714        8714        8714        8714        8714        8714
  grid # 5        1192        1192        1192        1192        1192        1192        1192
  grid # 6        5922        5922        5922        5922        5922        5922        5922
  grid # 7       13950       13950       13950       13950       13950       13950       13950
  grid # 8         748         748         748         748         748         748         748
  grid # 9         394         394         394         394         394         394         394
   
  number of gridpoints: 
     atom          C35         C36         C37         C38         C39         C40         C41
  grid # 1         100          95          98          92          79          81          81
  grid # 2         359         327         356         305         246         235         241
  grid # 3          14          18          10           6           6           6           6
  grid # 4        8714        8714        8714        8714        8714        8714        8714
  grid # 5        1192        1192        1192        1192        1192        1192        1192
  grid # 6        5922        5922        5922        5922        5922        5922        5922
  grid # 7       13950       13950       13950       13950       13950       13950       13950
  grid # 8         748         748         748         748         748         748         748
  grid # 9         394         394         394         394         394         394         394
   
  number of gridpoints: 
     atom          C42         C43         C44         C45         C46         O47         C48
  grid # 1          90          81          79          92          80         113          74
  grid # 2         303         237         242         303         241         431         228
  grid # 3           6           6           6           6           6          12           6
  grid # 4        8714        8714        8714        8714        8714        8714        8714
  grid # 5        1192        1192        1192        1192        1192        1192        1192
  grid # 6        5922        5922        5922        5922        5922        5922        5922
  grid # 7       13950       13950       13950       13950       13950       23382       13950
  grid # 8         748         748         748         748         748         774         748
  grid # 9         394         394         394         394         394         416         394
   
  number of gridpoints: 
     atom          O49         C50         H51         H52         H53         H54         H55
  grid # 1         114          75         100         104         104         112         110
  grid # 2         436         223         432         425         425         456         448
  grid # 3          21           6          81         114          79         324         254
  grid # 4        8714        8714        8714        8714        8714        8714        8714
  grid # 5        1192        1192        1192        1192        1192        1192        1192
  grid # 6        5922        5922        5922        5922        5922        5922        5922
  grid # 7       23382       13950       15206       15206       15206       15206       15206
  grid # 8         774         748         786         786         786         786         786
  grid # 9         416         394         420         420         420         420         420
   
  number of gridpoints: 
     atom          H56         H57         H58         H59         H60         H61         H62
  grid # 1         112         110         111         109          98         106         100
  grid # 2         456         452         451         447         410         428         411
  grid # 3         328         255         280         208          26         123          42
  grid # 4        8714        8714        8714        8714        8714        8714        8714
  grid # 5        1192        1192        1192        1192        1192        1192        1192
  grid # 6        5922        5922        5922        5922        5922        5922        5922
  grid # 7       15206       15206       15206       15206       15206       15206       15206
  grid # 8         786         786         786         786         786         786         786
  grid # 9         420         420         420         420         420         420         420
   
  number of gridpoints: 
     atom          H63         H64         H65         H66         H67         H68         H69
  grid # 1         101         104         109         112         106         112         110
  grid # 2         421         433         444         457         430         456         447
  grid # 3          40         131         210         315         132         324         237
  grid # 4        8714        8714        8714        8714        8714        8714        8714
  grid # 5        1192        1192        1192        1192        1192        1192        1192
  grid # 6        5922        5922        5922        5922        5922        5922        5922
  grid # 7       15206       15206       15206       15206       15206       15206       15206
  grid # 8         786         786         786         786         786         786         786
  grid # 9         420         420         420         420         420         420         420
   
  number of gridpoints: 
     atom          H70         H71         H72         H73         H74         H75         H76
  grid # 1         111          97         102         111         111         103         103
  grid # 2         454         409         429         441         438         423         425
  grid # 3         290          14         135         249         243          75          89
  grid # 4        8714        8714        8714        8714        8714        8714        8714
  grid # 5        1192        1192        1192        1192        1192        1192        1192
  grid # 6        5922        5922        5922        5922        5922        5922        5922
  grid # 7       15206       15206       15206       15206       15206       15206       15206
  grid # 8         786         786         786         786         786         786         786
  grid # 9         420         420         420         420         420         420         420
   
  number of gridpoints: 
     atom          H77         H78         H79         H80         H81         H82         H83
  grid # 1         104         107         104         110         109          99         105
  grid # 2         423         445         430         453         446         425         438
  grid # 3         100         246         125         302         270         103         219
  grid # 4        8714        8714        8714        8714        8714        8714        8714
  grid # 5        1192        1192        1192        1192        1192        1192        1192
  grid # 6        5922        5922        5922        5922        5922        5922        5922
  grid # 7       15206       15206       15206       15206       15206       15206       15206
  grid # 8         786         786         786         786         786         786         786
  grid # 9         420         420         420         420         420         420         420
   
  number of gridpoints: 
     atom          H84         H85         H86         H87         H88         H89         H90
  grid # 1         108         109         104         102         104         107          99
  grid # 2         451         453         432         420         434         440         409
  grid # 3         261         313         132          53         172         210          21
  grid # 4        8714        8714        8714        8714        8714        8714        8714
  grid # 5        1192        1192        1192        1192        1192        1192        1192
  grid # 6        5922        5922        5922        5922        5922        5922        5922
  grid # 7       15206       15206       15206       15206       15206       15206       15206
  grid # 8         786         786         786         786         786         786         786
  grid # 9         420         420         420         420         420         420         420
   
  number of gridpoints: 
     atom          H91         H92         H93         H94         H95         H96         H97
  grid # 1         109         104         110         105         110         106         109
  grid # 2         443         427         446         437         454         442         453
  grid # 3         254         141         278         142         309         237         314
  grid # 4        8714        8714        8714        8714        8714        8714        8714
  grid # 5        1192        1192        1192        1192        1192        1192        1192
  grid # 6        5922        5922        5922        5922        5922        5922        5922
  grid # 7       15206       15206       15206       15206       15206       15206       15206
  grid # 8         786         786         786         786         786         786         786
  grid # 9         420         420         420         420         420         420         420
   
  number of gridpoints: 
     atom          H98         H99        H100        H101        H102        H103        C104
  grid # 1         107         110         111         110         109         109          91
  grid # 2         454         447         449         459         446         446         326
  grid # 3         286         274         291         337         277         265           6
  grid # 4        8714        8714        8714        8714        8714        8714        8714
  grid # 5        1192        1192        1192        1192        1192        1192        1192
  grid # 6        5922        5922        5922        5922        5922        5922        5922
  grid # 7       15206       15206       15206       15206       15206       15206       13950
  grid # 8         786         786         786         786         786         786         748
  grid # 9         420         420         420         420         420         420         394
   
  number of gridpoints: 
     atom         C105        C106        C107        H108        H109        H110        H111
  grid # 1          80          79          81         105         109         104         101
  grid # 2         243         245         237         429         450         436         420
  grid # 3           6           6           6         120         283         155          91
  grid # 4        8714        8714        8714        8714        8714        8714        8714
  grid # 5        1192        1192        1192        1192        1192        1192        1192
  grid # 6        5922        5922        5922        5922        5922        5922        5922
  grid # 7       13950       13950       13950       15206       15206       15206       15206
  grid # 8         748         748         748         786         786         786         786
  grid # 9         394         394         394         420         420         420         420
   
  number of gridpoints: 
     atom         H112        H113        H114        H115        H116       Br118       total
  grid # 1         106         109         109         105         107         475       13433
  grid # 2         438         449         451         426         442         454       45543
  grid # 3         165         279         294         114         195         134       14417
  grid # 4        8714        8714        8714        8714        8714        8714     1028252
  grid # 5        1192        1192        1192        1192        1192        1192      140656
  grid # 6        5922        5922        5922        5922        5922        9132      708426
  grid # 7       15206       15206       15206       15206       15206       11582     1792266
  grid # 8         786         786         786         786         786         694       91194
  grid # 9         420         420         420         420         420         358       50040
   
  end of program grid
   
 Time(grid)  user:    1118.693  user+sys:    1118.693  wallclock:     282.296
  
  start of program rwr
  
  end of program rwr
   
 Time(rwr)  user:      80.603  user+sys:      80.603  wallclock:      23.753
  
  start of program scf
  
 number of electrons..........        410
 number of alpha electrons....        205
 number of beta electrons.....        205
 number of orbitals, total....        874
 number of doubly-occ'd orbs..        205
 number of open shell orbs....          0
 number of occupied orbitals..        205
 number of virtual orbitals...        669
 number of hamiltonians.......          1
 number of shells.............          1
 SCF type: DFT=Becke_3_Parameter/HF+Slater+Becke88+PW91+PW-GGAIIC (B3PW91-D3)
 Energy computed using pseudospectral method.
 Convergence Criterion:
    Energy (econv):       1.00E-05
    RMS density (dconv):  5.00E-06
  
       i  u  d  i  g                   
       t  p  i  c  r                                 RMS    maximum
       e  d  i  u  i                       energy  density   DIIS  
       r  t  s  t  d       total energy    change  change    error 
  
etot    1  N  N  5  M   -2553.98248695179           1.7E-03  1.8E-01
etot    2  Y  Y  6  M   -2558.77596073383  4.8E+00  2.5E-03  1.0E-01
etot    3  Y  Y  6  M   -2560.10462936044  1.3E+00  1.1E-03  6.1E-02
etot    4  N  Y  2  U   -2560.48783383555  3.8E-01  6.8E-04  3.6E-02
etot    5  Y  Y  6  M   -2560.61601060973  1.3E-01  4.2E-04  2.1E-02
etot    6  N  Y  2  U   -2560.62818854386  1.2E-02  3.9E-04  9.2E-03
etot    7  Y  Y  6  M   -2560.63024672091  2.1E-03  8.1E-05  6.2E-03
etot    8  Y  Y  6  M   -2560.63523819149  5.0E-03  2.9E-05  1.3E-03
etot    9  N  Y  2  U   -2560.63676959323  1.5E-03  8.2E-06  2.2E-04
etot   10  N  Y  2  U   -2560.63677985522  1.0E-05  3.2E-06  9.1E-05
etot   11  N  N  2  U   -2560.63678309581  3.2E-06  0.0E+00  0.0E+00
 
  Computing the dispersion energy correction and its gradients...
  
  
 Energy components, in hartrees:
   (A)  Nuclear repulsion............    8907.07036610244
   (E)  Total one-electron terms.....  -21342.24315755115
   (F)    Electron-nuclear...........  -23799.48540585658
   (H)    Kinetic....................    2457.24224830542
   (I)  Total two-electron terms.....    9874.53600835290
   (J)    Coulomb....................   10218.29501119699
   (K)    Exchange+Correlation.......    -343.75900284409
   (L)  Electronic energy............  -11467.70714919826  (E+I)
   (N0) D3 correction................      -0.24113975659
   (N)  Total energy.................   -2560.87792285240  (A+L+N0)
   (O)  Gas phase energy.............   -2560.87792285240
  
 SCFE: SCF energy: DFT(b3pw91-d3)     -2560.87792285240 hartrees   iterations:  11
  
 
 HOMO energy:    -0.05746
 LUMO energy:     0.05958
 
  Orbital energies (hartrees): 
   -76.95442   -24.56939   -19.09516   -19.09075   -18.94430   -10.15718
   -10.15504   -10.15281   -10.14940   -10.12464   -10.10396   -10.10097
   -10.10000   -10.09800   -10.08278   -10.08005   -10.07522   -10.07498
   -10.07279   -10.07218   -10.07190   -10.06960   -10.06926   -10.06920
   -10.06887   -10.06817   -10.06766   -10.06678   -10.06650   -10.06629
   -10.06557   -10.06453   -10.06374   -10.06061   -10.05859   -10.05706
   -10.05486   -10.05102   -10.05098   -10.05073   -10.05064   -10.04743
   -10.04400   -10.04222   -10.04050   -10.03812   -10.02964   -10.02930
   -10.02027   -10.01564    -6.45467    -4.61332    -4.61222    -4.60839
    -3.19619    -1.93128    -1.92564    -1.89307    -1.10108    -1.00299
    -0.99745    -0.81323    -0.78379    -0.75830    -0.74387    -0.73797
    -0.73009    -0.71907    -0.70961    -0.69535    -0.68983    -0.67344
    -0.66157    -0.65094    -0.64865    -0.64702    -0.64314    -0.63971
    -0.62778    -0.62051    -0.61688    -0.61110    -0.61060    -0.59544
    -0.58499    -0.57646    -0.56312    -0.56265    -0.55806    -0.55755
    -0.53757    -0.52314    -0.51884    -0.51458    -0.51089    -0.50650
    -0.50421    -0.49278    -0.49240    -0.47618    -0.47478    -0.46484
    -0.46123    -0.45091    -0.44190    -0.43342    -0.43145    -0.43022
    -0.41905    -0.40871    -0.40606    -0.40509    -0.39645    -0.38479
    -0.37920    -0.37692    -0.37554    -0.36754    -0.35810    -0.35608
    -0.35219    -0.35135    -0.34706    -0.34411    -0.34389    -0.34302
    -0.34147    -0.34091    -0.33935    -0.33802    -0.33701    -0.33435
    -0.32885    -0.32683    -0.32339    -0.32283    -0.31648    -0.31457
    -0.31242    -0.30984    -0.30842    -0.30461    -0.30101    -0.29668
    -0.29463    -0.29244    -0.28893    -0.28587    -0.28377    -0.28149
    -0.28017    -0.27559    -0.27527    -0.27429    -0.27157    -0.27110
    -0.26849    -0.26654    -0.26510    -0.26303    -0.26095    -0.25812
    -0.25414    -0.24998    -0.24758    -0.24546    -0.24338    -0.24181
    -0.24074    -0.24001    -0.23933    -0.23614    -0.23470    -0.23115
    -0.22778    -0.22531    -0.21928    -0.21845    -0.21643    -0.21270
    -0.21200    -0.21088    -0.20954    -0.20753    -0.20396    -0.20249
    -0.20085    -0.19510    -0.18674    -0.17669    -0.16866    -0.16342
    -0.15454    -0.13693    -0.13089    -0.12837    -0.12727    -0.12407
    -0.11285    -0.10193    -0.09600    -0.08897    -0.08277    -0.07477
    -0.05746     0.05958     0.08884     0.09980     0.10470     0.11066
     0.12002     0.13466     0.13916     0.14982     0.15225
 
  end of program scf
   
 Time(scf)  user:     781.422  user+sys:     781.422  wallclock:     198.913
  
  start of program der1a
  
  end of program der1a
   
 Time(der1a)  user:      56.290  user+sys:      56.290  wallclock:      14.244
  
  start of program rwr
  
  end of program rwr
   
 Time(rwr)  user:     103.925  user+sys:     103.925  wallclock:      34.017
  
  start of program der1b
  
   
  forces (hartrees/bohr) : total     
   
 atom  label           x              y              z
 ---- --------   -------------  -------------  -------------
    1 P1          8.333897E-03  -7.078418E-04   7.986107E-03
    2 Pd2        -1.405001E-02   7.232243E-03   3.018964E-03
    3 O2         -5.246535E-03   8.202477E-03   5.047460E-03
    4 C3         -1.805681E-03   7.217122E-04  -2.871726E-03
    5 C4         -1.298556E-03   1.560505E-03  -1.071021E-03
    6 C5          6.329424E-04   1.166073E-03   2.876507E-03
    7 C6          1.483254E-03  -8.395033E-04  -3.539256E-03
    8 C7         -4.463038E-04  -4.985948E-04   8.497796E-04
    9 C8         -1.122656E-03  -7.772713E-04   7.001123E-04
   10 F9          2.730432E-03  -3.079507E-04   3.723286E-03
   11 H10         1.719674E-04  -1.436041E-04  -4.368601E-05
   12 H11        -4.889770E-04  -4.881221E-04  -6.842912E-04
   13 H12         2.178180E-04   5.518712E-05   3.727215E-04
   14 H13         8.267872E-04  -3.497021E-04  -1.361517E-03
   15 C14         1.750221E-03   7.699542E-04  -8.799052E-04
   16 C15        -1.484810E-03  -1.379266E-03   3.330979E-04
   17 C16        -4.060223E-04  -3.918900E-05   2.159189E-04
   18 C17         3.506105E-04  -6.649309E-04   5.711394E-04
   19 C18        -1.353308E-03   1.427464E-03   8.237886E-04
   20 C19        -2.186833E-03  -4.758653E-03   1.233356E-03
   21 C20        -5.071370E-04  -1.660519E-03  -2.440089E-03
   22 C21         5.276834E-04   1.183274E-03  -3.604202E-04
   23 C22         1.726856E-05  -5.479537E-04   6.595400E-04
   24 C23         1.276588E-04  -1.812742E-04   4.462351E-05
   25 C24         3.670352E-04  -6.066471E-04   3.985245E-04
   26 C25        -4.791940E-04  -2.755521E-04  -8.808912E-04
   27 C26        -1.447434E-03  -1.907165E-04  -1.611389E-03
   28 C27         1.216975E-03   1.014708E-03   1.957660E-03
   29 C28         5.028276E-05   3.034518E-03  -4.157351E-03
   30 C29         6.210757E-04  -1.020005E-03   2.554413E-03
   31 C30         5.680179E-04   1.940962E-03  -6.794561E-04
   32 C31        -1.684582E-03  -4.678898E-03   1.808111E-03
   33 C32        -1.113825E-03  -3.721007E-03   2.999096E-03
   34 C33         2.792183E-03  -4.616977E-05  -9.618955E-04
   35 C34        -3.958743E-04   8.543914E-04  -6.022079E-04
   36 C35         1.135485E-03  -2.832146E-03  -5.159494E-03
   37 C36        -8.218927E-03  -3.468932E-03   5.282923E-04
   38 C37        -2.554134E-03  -1.137422E-03   3.665909E-03
   39 C38         1.391615E-03   9.768358E-04   1.845910E-03
   40 C39        -3.950887E-04   8.963893E-04  -1.293227E-04
   41 C40         3.845152E-03  -3.825874E-03  -5.632494E-03
   42 C41        -2.902761E-04   1.176166E-03  -2.006004E-04
   43 C42         6.400542E-04  -1.206322E-03   9.154738E-04
   44 C43        -7.043286E-04  -2.622175E-04  -7.097682E-04
   45 C44         1.178206E-05  -4.670725E-04  -2.133390E-05
   46 C45         9.034283E-04   8.421498E-04  -1.470795E-03
   47 C46        -1.067038E-04   7.823957E-04   2.572624E-04
   48 O47        -1.890168E-03   3.913508E-03  -6.375274E-03
   49 C48         2.581215E-03  -1.320564E-03   6.038389E-03
   50 O49        -4.281285E-03  -6.290928E-03  -2.031887E-04
   51 C50         3.766909E-03   4.946307E-03   1.813184E-03
   52 H51        -1.562223E-03  -3.786126E-03   6.448943E-04
   53 H52        -1.730656E-05   7.953537E-04  -1.997618E-04
   54 H53         2.161909E-05   6.343337E-04  -1.369489E-03
   55 H54         2.038486E-04   6.590034E-04  -1.020678E-03
   56 H55        -4.616109E-04  -6.728357E-04  -1.107785E-04
   57 H56         8.389855E-04   5.764425E-04  -6.331015E-04
   58 H57        -5.609869E-04   2.007876E-04  -5.918098E-04
   59 H58         3.948822E-05  -4.510377E-04  -7.142210E-04
[...]
    H76      X    -0.00010   0.00005  -0.00503   0.00123  -0.00105   0.00959
    H76      Y     0.00019  -0.00007   0.00289  -0.00078   0.00066  -0.00681
    H76      Z    -0.00009  -0.00002  -0.00001   0.00033  -0.00029   0.00184
    H77      X     0.00009  -0.00002   0.00022   0.00019   0.00002   0.00001
    H77      Y    -0.00025   0.00003  -0.00047  -0.00060   0.00010   0.00009
    H77      Z     0.00043  -0.00005   0.00086   0.00086  -0.00013  -0.00026
    H78      X     0.00008  -0.00001   0.00012  -0.00005   0.00001   0.00001
    H78      Y    -0.00023   0.00004  -0.00038  -0.00001  -0.00000  -0.00010
    H78      Z     0.00029  -0.00007   0.00042  -0.00003   0.00002   0.00015
    H79      X    -0.00005  -0.00013   0.00030   0.00006   0.00018   0.00044
    H79      Y    -0.00001  -0.00003   0.00002  -0.00002  -0.00005   0.00012
    H79      Z    -0.00002  -0.00004   0.00007   0.00004  -0.00005   0.00015
    H80      X    -0.00017  -0.00015  -0.00030   0.00008  -0.00040   0.00046
    H80      Y     0.00011   0.00010   0.00011  -0.00008   0.00021  -0.00035
    H80      Z     0.00023   0.00022   0.00039  -0.00013   0.00045  -0.00065
    H81      X    -0.00044  -0.00030  -0.00061   0.00008  -0.00023   0.00029
    H81      Y     0.00013   0.00013   0.00020  -0.00001   0.00007  -0.00000
    H81      Z     0.00063   0.00047   0.00098  -0.00010   0.00030  -0.00020
    H82      X     0.00040   0.00024   0.00022  -0.00009   0.00005  -0.00015
    H82      Y     0.00195   0.00084   0.00097  -0.00025   0.00011  -0.00073
    H82      Z     0.00057   0.00016   0.00026  -0.00009   0.00003  -0.00034
    H83      X     0.00009  -0.00002   0.00031   0.00008  -0.00005   0.00019
    H83      Y    -0.00026   0.00001  -0.00062  -0.00014   0.00010  -0.00051
    H83      Z     0.00019  -0.00008   0.00057   0.00020  -0.00014   0.00055
    H84      X    -0.00007  -0.00001   0.00181  -0.00002   0.00002   0.00004
    H84      Y    -0.00019   0.00000   0.00501  -0.00006  -0.00000  -0.00005
    H84      Z     0.00044  -0.00001  -0.00998  -0.00003   0.00005   0.00006
    H85      X     0.00029   0.00018   0.00030  -0.00001   0.00063  -0.00079
    H85      Y    -0.00014  -0.00009   0.00049  -0.00004  -0.00033   0.00032
    H85      Z     0.00007   0.00005  -0.00017   0.00002   0.00010  -0.00019
    H86      X    -0.00001  -0.00001   0.00089   0.00009  -0.00015   0.00002
    H86      Y    -0.00002   0.00001  -0.00513  -0.00047   0.00015   0.00025
    H86      Z    -0.00003   0.00001  -0.00481  -0.00035   0.00013   0.00022
    H87      X    -0.00000  -0.00002   0.00229  -0.00013   0.00001  -0.00012
    H87      Y    -0.00020   0.00002   0.00045  -0.00048   0.00016   0.00026
    H87      Z     0.00049  -0.00004  -0.00265   0.00115  -0.00022  -0.00047
    H88      X    -0.00011  -0.00003   0.00570  -0.00012   0.00003  -0.00017
    H88      Y    -0.00014  -0.00005   0.01267  -0.00027   0.00006  -0.00037
    H88      Z     0.00034   0.00015  -0.03132   0.00074  -0.00022   0.00091
    H89      X     0.00070   0.00024  -0.00477   0.00008   0.00026  -0.00074
    H89      Y    -0.00052  -0.00015   0.00247  -0.00002  -0.00021   0.00063
    H89      Z     0.00029   0.00010  -0.00236   0.00004   0.00009  -0.00023
    H90      X     0.00199  -0.00035   0.00370  -0.00014  -0.00008  -0.00242
    H90      Y     0.00142  -0.00020   0.00191  -0.00012  -0.00002  -0.00169
    H90      Z     0.00008  -0.00002   0.00141  -0.00005   0.00002  -0.00022
    H91      X     0.00366   0.00014   0.02882  -0.00051   0.00014   0.00128
    H91      Y     0.00094   0.00004   0.00449  -0.00007   0.00002   0.00068
    H91      Z    -0.00001  -0.00000   0.00182  -0.00004   0.00002  -0.00019
    H92      X     0.00136  -0.00013  -0.00154   0.00001   0.00001  -0.00064
    H92      Y     0.01048  -0.00025  -0.00288  -0.00003   0.00011   0.00015
    H92      Z    -0.00147   0.00010  -0.00004   0.00000   0.00000   0.00022
    H93      X    -0.00155   0.00004   0.00490  -0.00005  -0.00007   0.00016
    H93      Y     0.00081  -0.00003  -0.00424   0.00005   0.00005   0.00012
    H93      Z    -0.00376   0.00019   0.00936  -0.00007  -0.00019   0.00074
    H94      X     0.00557   0.00004  -0.00044   0.00004  -0.00008   0.00312
    H94      Y     0.00074  -0.00009   0.00068  -0.00002  -0.00000   0.00013
    H94      Z     0.00090  -0.00001  -0.00159   0.00005  -0.00005   0.00083
    H95      X     0.00148   0.00002   0.00381  -0.00020   0.00010  -0.00017
    H95      Y     0.00041   0.00001   0.00108  -0.00004   0.00001   0.00026
    H95      Z     0.00013   0.00000   0.00051  -0.00002   0.00002  -0.00018
    H96      X    -0.00013  -0.00007   0.00197   0.00001   0.00000  -0.00069
    H96      Y     0.00012   0.00008  -0.00223   0.00001  -0.00002   0.00079
    H96      Z     0.00004   0.00012  -0.00252  -0.00001   0.00001   0.00094
    H97      X     0.00009  -0.00005  -0.00053   0.00001  -0.00007   0.00031
    H97      Y    -0.00015   0.00005   0.00111  -0.00005   0.00011  -0.00064
    H97      Z     0.00041  -0.00017  -0.00200   0.00007  -0.00025   0.00101
    H98      X    -0.00002  -0.00009  -0.00001   0.00582   0.00428   0.00006
    H98      Y    -0.00009  -0.00033  -0.00012   0.01799   0.01230   0.00025
    H98      Z     0.00004   0.00009   0.00007  -0.00395  -0.00232  -0.00009
    H99      X    -0.00008   0.00003   0.00028   0.01185   0.01101  -0.00010
    H99      Y    -0.00000   0.00001   0.00005   0.00117   0.00144  -0.00003
    H99      Z     0.00001   0.00002  -0.00005  -0.00290  -0.00257  -0.00000
    H100     X     0.00003   0.00000  -0.00005  -0.00412  -0.00332   0.00000
    H100     Y    -0.00006   0.00004   0.00019   0.01064   0.00970  -0.00007
    H100     Z    -0.00007   0.00006   0.00017   0.00915   0.00800  -0.00007
    H101     X     0.00000   0.00000  -0.00007  -0.00133   0.00115   0.00000
    H101     Y    -0.00022   0.00011   0.00089   0.01120  -0.00703  -0.00012
    H101     Z     0.00022  -0.00011  -0.00095  -0.01434   0.00963   0.00013
    H102     X     0.00004   0.00009   0.00035  -0.01137   0.01020  -0.00021
    H102     Y    -0.00001  -0.00003  -0.00005   0.00460  -0.00418   0.00004
    H102     Z    -0.00000   0.00003   0.00014  -0.00234   0.00249  -0.00006
    H103     X    -0.00003  -0.00004   0.00022   0.00552  -0.00471   0.00008
    H103     Y     0.00002   0.00005  -0.00008  -0.00395   0.00334  -0.00011
    H103     Z     0.00004   0.00012  -0.00029  -0.01058   0.00971  -0.00022
    C104     X    -0.00003   0.00006   0.00001  -0.00000  -0.00000   0.00000
    C104     Y    -0.00003   0.00019  -0.00000   0.00001   0.00001   0.00004
    C104     Z    -0.00005   0.00007   0.00005   0.00000   0.00001   0.00002
    C105     X    -0.00065   0.00116  -0.00034   0.00001  -0.00000  -0.00035
    C105     Y    -0.00007   0.00023  -0.00021   0.00001   0.00002   0.00043
    C105     Z    -0.00014   0.00023  -0.00007   0.00000   0.00001   0.00005
    C106     X     0.00005   0.00113  -0.00000  -0.00000  -0.00001   0.00000
    C106     Y    -0.00006  -0.00080  -0.00001   0.00000   0.00001   0.00002
    C106     Z    -0.00002   0.00016   0.00005  -0.00000   0.00001  -0.00003
    C107     X     0.00004   0.00004  -0.00002   0.00000  -0.00000  -0.00003
    C107     Y     0.00001   0.00008  -0.00007   0.00001   0.00001  -0.00000
    C107     Z    -0.00004  -0.00000   0.00008  -0.00001   0.00001  -0.00002
    H108     X     0.00763  -0.01266   0.00274  -0.00006   0.00001   0.00598
    H108     Y    -0.00164   0.00256  -0.00038   0.00001   0.00001  -0.00068
    H108     Z     0.00136  -0.00228   0.00057  -0.00001   0.00001   0.00112
    H109     X    -0.00051   0.00061  -0.00012   0.00002   0.00010   0.00080
    H109     Y     0.00051  -0.00039   0.00034  -0.00003  -0.00014  -0.00169
    H109     Z     0.00052  -0.00045   0.00025  -0.00004  -0.00018  -0.00166
    H110     X     0.00089  -0.00248   0.00134  -0.00004  -0.00006  -0.00244
    H110     Y     0.00176  -0.00488   0.00242  -0.00007  -0.00009  -0.00292
    H110     Z    -0.00012   0.00011  -0.00014   0.00000   0.00001   0.00005
    H111     X     0.00005   0.00006  -0.00021   0.00002  -0.00001   0.00012
    H111     Y    -0.00004  -0.00002   0.00040  -0.00003   0.00001  -0.00022
    H111     Z     0.00010   0.00018  -0.00099   0.00010   0.00001   0.00056
    H112     X    -0.00039  -0.00137   0.00046  -0.00003   0.00001   0.00017
    H112     Y    -0.00040  -0.00101   0.00032  -0.00003   0.00002   0.00021
    H112     Z     0.00014   0.00036  -0.00010   0.00001   0.00000  -0.00012
    H113     X    -0.00013   0.00028   0.00006   0.00001   0.00003   0.00013
    H113     Y     0.00046  -0.00074  -0.00006  -0.00001  -0.00015  -0.00022
    H113     Z     0.00037  -0.00062  -0.00006  -0.00001  -0.00013  -0.00021
    H114     X    -0.00002  -0.00006   0.00001   0.00000   0.00001  -0.00002
    H114     Y     0.00047   0.00088  -0.00014  -0.00002  -0.00015  -0.00004
    H114     Z     0.00055   0.00142  -0.00016  -0.00002  -0.00019  -0.00005
    H115     X    -0.00045  -0.01223   0.00013   0.00002   0.00013   0.00001
    H115     Y     0.00013   0.00461  -0.00003  -0.00000  -0.00003  -0.00002
    H115     Z     0.00002   0.00162   0.00002   0.00000  -0.00000   0.00002
    H116     X    -0.00009  -0.00159  -0.00011   0.00002   0.00000   0.00006
    H116     Y     0.00016   0.00319   0.00041  -0.00005   0.00000  -0.00034
    H116     Z    -0.00028  -0.00487  -0.00056   0.00007   0.00002   0.00049
    Br118    X     0.00000  -0.00002   0.00000  -0.00000  -0.00000  -0.00000
    Br118    Y    -0.00000  -0.00001  -0.00000  -0.00000   0.00000  -0.00000
    Br118    Z    -0.00000  -0.00001  -0.00000   0.00000   0.00000   0.00001
  
  Number of imaginary frequencies:   0
   
  Writing vibrational animation data to L_Ar_OtBu_Br_Ar_trans_PL344.vib
  Writing IR vibrational spectrum data to L_Ar_OtBu_Br_Ar_trans_PL344_vib.spm
  rotational symmetry number:  1

  rotational temperatures (K):      0.002767      0.002244      0.001972
   
  The Quasi-Harmonic approximation will be applied to compute
  vibrational constributions to thermodynamic properties.
  Frequencies will be adjusted to a minimum value of  100.00 cm^-1.

  vibrational temperatures:
       mode:      1        2        3        4        5        6
  temp. (K):   143.88   143.88   143.88   143.88   143.88   143.88
   
       mode:      7        8        9       10       11       12
  temp. (K):   143.88   143.88   143.88   143.88   143.88   143.88
   
       mode:     13       14       15       16       17       18
  temp. (K):   143.88   143.88   143.88   143.88   143.88   143.88
   
       mode:     19       20       21       22       23       24
  temp. (K):   143.88   143.88   145.93   151.84   153.67   168.37
   
       mode:     25       26       27       28       29       30
  temp. (K):   171.72   179.69   185.10   189.98   195.32   206.57
   
       mode:     31       32       33       34       35       36
  temp. (K):   212.54   214.52   222.30   235.18   252.33   261.21
   
       mode:     37       38       39       40       41       42
  temp. (K):   267.47   268.95   282.90   296.02   303.27   313.92
   
       mode:     43       44       45       46       47       48
  temp. (K):   326.83   337.26   344.73   349.84   352.40   360.56
   
       mode:     49       50       51       52       53       54
  temp. (K):   373.30   376.38   386.68   391.88   398.18   399.15
   
       mode:     55       56       57       58       59       60
  temp. (K):   409.71   416.30   425.88   438.09   442.53   447.34
   
       mode:     61       62       63       64       65       66
  temp. (K):   449.92   462.84   474.52   476.35   479.46   489.02
   
       mode:     67       68       69       70       71       72
  temp. (K):   492.06   509.42   513.91   544.57   547.36   553.50
   
       mode:     73       74       75       76       77       78
  temp. (K):   557.60   573.98   580.52   588.66   592.99   606.73
   
       mode:     79       80       81       82       83       84
  temp. (K):   609.01   616.54   649.75   653.78   655.02   656.54
   
       mode:     85       86       87       88       89       90
  temp. (K):   675.12   676.40   687.86   692.56   713.78   735.76
   
       mode:     91       92       93       94       95       96
  temp. (K):   750.77   752.95   762.38   800.58   818.43   821.99
   
       mode:     97       98       99      100      101      102
  temp. (K):   841.46   847.59   888.17   901.32   910.82   917.00
   
       mode:    103      104      105      106      107      108
  temp. (K):   934.28   968.17   972.19  1023.24  1046.76  1055.35
   
       mode:    109      110      111      112      113      114
  temp. (K):  1093.43  1097.76  1130.30  1147.27  1173.16  1177.21
   
       mode:    115      116      117      118      119      120
  temp. (K):  1177.89  1178.69  1180.32  1189.54  1192.59  1207.43
   
       mode:    121      122      123      124      125      126
  temp. (K):  1209.41  1223.97  1242.99  1260.15  1263.61  1291.99
   
       mode:    127      128      129      130      131      132
  temp. (K):  1300.16  1307.02  1308.01  1312.15  1318.55  1322.19
   
       mode:    133      134      135      136      137      138
  temp. (K):  1323.04  1323.90  1324.76  1327.57  1353.04  1361.40
   
       mode:    139      140      141      142      143      144
  temp. (K):  1369.08  1372.83  1373.69  1374.02  1380.03  1388.46
   
       mode:    145      146      147      148      149      150
  temp. (K):  1401.49  1410.87  1414.13  1420.74  1422.45  1430.72
   
       mode:    151      152      153      154      155      156
  temp. (K):  1483.75  1485.81  1488.27  1504.75  1514.91  1521.37
   
       mode:    157      158      159      160      161      162
  temp. (K):  1523.95  1525.63  1557.33  1558.83  1564.46  1571.69
   
       mode:    163      164      165      166      167      168
  temp. (K):  1586.57  1596.59  1600.84  1607.33  1608.63  1610.17
   
       mode:    169      170      171      172      173      174
  temp. (K):  1613.31  1634.40  1645.25  1648.07  1657.95  1662.27
   
       mode:    175      176      177      178      179      180
  temp. (K):  1663.63  1668.85  1682.64  1702.82  1705.31  1720.18
   
       mode:    181      182      183      184      185      186
  temp. (K):  1721.91  1725.62  1746.24  1748.64  1749.16  1759.43
   
       mode:    187      188      189      190      191      192
  temp. (K):  1762.99  1772.73  1777.94  1791.05  1791.74  1802.23
   
       mode:    193      194      195      196      197      198
  temp. (K):  1813.02  1816.18  1817.70  1864.53  1865.35  1872.61
   
       mode:    199      200      201      202      203      204
  temp. (K):  1877.96  1883.19  1890.83  1893.03  1895.85  1906.81
   
       mode:    205      206      207      208      209      210
  temp. (K):  1907.62  1916.55  1921.82  1934.45  1936.13  1940.15
   
       mode:    211      212      213      214      215      216
  temp. (K):  1945.53  1951.81  1955.12  1970.30  1977.53  1978.72
   
       mode:    217      218      219      220      221      222
  temp. (K):  1979.87  1996.50  2000.83  2008.48  2010.16  2013.66
   
       mode:    223      224      225      226      227      228
  temp. (K):  2015.19  2016.50  2017.35  2018.49  2021.67  2026.46
   
       mode:    229      230      231      232      233      234
  temp. (K):  2028.16  2042.91  2044.77  2046.83  2051.65  2054.44
   
       mode:    235      236      237      238      239      240
  temp. (K):  2079.44  2081.71  2087.15  2099.50  2113.10  2136.11
   
       mode:    241      242      243      244      245      246
  temp. (K):  2157.70  2157.90  2159.24  2165.71  2168.80  2170.29
   
       mode:    247      248      249      250      251      252
  temp. (K):  2172.02  2174.22  2174.72  2178.62  2179.58  2182.29
   
       mode:    253      254      255      256      257      258
  temp. (K):  2183.17  2184.48  2185.77  2186.73  2188.29  2189.16
   
       mode:    259      260      261      262      263      264
  temp. (K):  2190.10  2190.77  2193.57  2195.44  2196.37  2199.48
   
       mode:    265      266      267      268      269      270
  temp. (K):  2201.47  2203.31  2205.89  2206.04  2209.18  2210.30
   
       mode:    271      272      273      274      275      276
  temp. (K):  2214.72  2218.67  2220.88  2223.16  2227.25  2246.25
   
       mode:    277      278      279      280      281      282
  temp. (K):  2351.36  2359.53  2360.59  2367.37  2371.14  2417.40
   
       mode:    283      284      285      286      287      288
  temp. (K):  4327.63  4328.45  4330.07  4331.82  4334.40  4341.53
   
       mode:    289      290      291      292      293      294
  temp. (K):  4347.97  4349.15  4357.69  4359.22  4360.29  4361.25
   
       mode:    295      296      297      298      299      300
  temp. (K):  4369.53  4369.71  4372.50  4373.99  4376.36  4376.51
   
       mode:    301      302      303      304      305      306
  temp. (K):  4382.19  4391.43  4393.21  4401.26  4404.34  4408.18
   
       mode:    307      308      309      310      311      312
  temp. (K):  4410.75  4413.99  4419.92  4428.04  4430.23  4441.22
   
       mode:    313      314      315      316      317      318
  temp. (K):  4441.60  4445.19  4450.89  4457.09  4459.40  4463.37
   
       mode:    319      320      321      322      323      324
  temp. (K):  4463.89  4464.04  4469.38  4476.13  4482.11  4483.98
   
       mode:    325      326      327      328      329      330
  temp. (K):  4487.66  4490.29  4491.63  4500.87  4509.18  4509.80
   
       mode:    331      332      333      334      335      336
  temp. (K):  4512.67  4516.65  4517.87  4528.99  4532.46  4538.24
   
       mode:    337      338      339      340      341      342
  temp. (K):  4553.06  4563.20  4564.46  4571.40  4575.94  4593.79
   
       mode:    343      344      345      346      347      348
  temp. (K):  4612.55  4621.83  4623.55  4627.10  4650.05  4684.02
   
   
  Thermodynamic properties calculated assuming an ideal gas

  In the table below, the units for temperature
  are kelvins, the units for U, H, and G are
  kcal/mol and the units for Cv and S are cal/(mol K)

  The zero point energy (ZPE):    649.315 kcal/mol
  is not included in U, H, or G in the table below
  
 
  =============================================================================
  Thermodynamic properties for P = 1.00E+00 atm, calculated at   1 temperatures


  T =   298.15 K, P = 1.00E+00 atm
   
                  U         Cv          S          H          G        ln(Q)
              =========  =========  =========  =========  =========  =========
  trans.          0.889      2.981     46.232      1.481    -12.303   20.76477
  rot.            0.889      2.981     39.203      0.889    -10.800   18.22794
  vib.           33.205    213.853    203.546     33.205    -27.483   46.38547
  elec.           0.000      0.000      0.000      0.000      0.000    0.00000
  ----------------------------------------------------------------------------
  total          34.982    219.815    288.982     35.575    -50.585   85.37818
   
   Total internal energy, Utot(SCFE + ZPE + U):   -2559.843307 hartrees
   Total enthalpy, Htot (Utot + nRT), with n=1:   -2559.842363 hartrees
    Total Gibbs free energy, Gtot (Htot - T*S):   -2559.979667 hartrees
   
  end of program freq
   
 Time(freq)  user:       1.395  user+sys:       1.395  wallclock:       0.648
  
  start of program post
  
  Writing input files for PBF
  end of program post
   
 Time(post)  user:       0.277  user+sys:       0.277  wallclock:       0.130

 Total cpu seconds     user:  239984.389   user+sys:  239984.389
  
 Total elapsed time:    68097 seconds

Job L_Ar_OtBu_Br_Ar_trans_PL344 completed on bp1-compute103.data.bp.acrc.priv at Wed Jul 16 05:17:27 2025
