Job ox_add_Ar_trans_L1_PL344 started on bp1-compute130.data.bp.acrc.priv at Sun Apr 13 17:12:41 2025
jobid: bp1-compute130-0-67fbe274

  +--------------------------------------------------------------------+
  |  Jaguar version 12.5, release 138                                  |
  |                                                                    |
  |  Copyright Schrodinger, Inc.                                       |
  |  All Rights Reserved.                                              |
  |                                                                    |
  |  The following have contributed to Jaguar (listed alphabetically): |
  |  Ty Balduf, Mike Beachy, Chandler Bennett, Art Bochevarov,         |
  |  Dale Braden, Yixiang Cao, Alan Chien, Chris Cortis,               |
  |  Rich Friesner, Jim Furness, Bill Goddard, Hod Greeley,            |
  |  Tom Hughes, Leif Jacobson, Jean-Marc Langlois, Daniel Levine,     |
  |  Rob Murphy, Dean Philipp, Tom Pollard, Murco Ringnalda,           |
  |  Daniel Mainz, Pablo Videla, Mark Watson, Haoyu Yu.                |
  |                                                                    |
  |  Use of this program should be acknowledged in publications as:    |
  |                                                                    |
  |  Jaguar, version 12.5, Schrodinger, Inc., New York, NY, 2024.      |
  |                                                                    |
  |  A. D. Bochevarov, E. Harder, T. F. Hughes, J. R. Greenwood,       |
  |  D. A. Braden, D. M. Philipp, D. Rinaldo, M. D. Halls,             |
  |  J. Zhang, R. A. Friesner, "Jaguar: A High-Performance Quantum     |
  |  Chemistry Software Program with Strengths in Life and Materials   |
  |  Sciences", Int. J. Quantum Chem., 2013, 113(18), 2110-2142.       |
  +--------------------------------------------------------------------+
  
  start of program pre
  
  Job name: ox_add_Ar_trans_L1_PL344
  Executables used: /software/local/apps/schrodinger2024-3/jaguar-v12.5/bin/Linux-x86_64
  Temporary files : /tmp/ar21627/ox_add_Ar_trans_L1_PL344#bp1-compute130-0-67fbe274
  Basis file : using default basis file from /software/local/apps/schrodinger2024-3
  Maestro file (input):  ox_add_Ar_trans_L1_PL344.mae
  Maestro file (output): ox_add_Ar_trans_L1_PL344.01.mae
  
 Contents of input file: &gen and (if present) &atomic sections only
 ----------------Contents start----------------
&gen
dftname=b3pw91-d3
basis=6-31G*
numd=5
ip11=2
iaccg=3
isolv=2
igeopt=1
solvent=benzene
ifreq=1
&
&atomic
atom basis
Pd2 lacv3p*
Br3 lacv3p*
&
 -----------------Contents end-----------------
 
  PS calculation requested. Using PS version of 6-31g*
  basis set:               non_standard                    
  net molecular charge:    0
  multiplicity:            1
  
  Using up to   4 threads per process
  
  This run will use ECP on            2  atoms
  number of basis functions....          788
  
 Input geometry:
                                   angstroms
  atom               x                 y                 z
  P1            0.0000000000      0.0000000000      0.0000000000 
  Pd2           0.0000000000      0.0000000000      2.2761010486 
  Br3          -0.2534182887     -0.2008568606      4.8111435857 
  C73           2.7121840292      3.8713790990      2.7086717980 
  C74           3.3354836391      2.6496455847      2.5033309458 
  C75           2.5458599746      1.5135101227      2.3160828367 
  C76           1.1482365850      1.6006243534      2.3383578262 
  C77           0.5502103803      2.8558951998      2.5021507543 
  C78           1.3307843074      3.9986889259      2.6953470551 
  F79           3.4728849828      4.9712540458      2.9272244420 
  H80           4.4208180394      2.5916684259      2.5184056490 
  H82          -0.5311853332      2.9483927793      2.4807163774 
  H83           0.8806478026      4.9788553092      2.8333126962 
  H14           3.0118049740      0.5531673818      2.1516532853 
  C3            1.7300610000      0.0000000000     -0.6757070000 
  C4            2.6474625457     -1.1626292778     -0.2381045229 
  C5            3.9493210895     -1.1804833263     -1.0533743700 
  C6            4.7146352922      0.1379688507     -0.8775722161 
  C7            3.8244023363      1.3347787855     -1.2377928891 
  C8            2.5163894624      1.3064922379     -0.4324236143 
  C9           -0.8180240000      1.4096690000     -0.6917300000 
  C10          -2.2927740000      1.4539250000     -0.2588000000 
  C11          -3.0649390000      2.6131910000     -0.9019730000 
  C12          -2.3959200000      3.9537300000     -0.5771470000 
  C13          -0.9361930000      3.9384250000     -1.0456500000 
  C14          -0.1619940000      2.7737060000     -0.4106920000 
  C15          -0.9407660000     -1.3859480000     -0.6815250000 
  C16          -1.6738125872     -2.3161384009      0.1141116587 
  C17          -2.5134174674     -3.2605751516     -0.5240955105 
  C18          -2.6173510128     -3.2340257141     -1.9234076241 
  C19          -1.9183950075     -2.3015299328     -2.6901990567 
  C20          -1.0735400134     -1.3571029430     -2.0903289547 
  C21          -1.6173562052     -2.3803924065      1.5383804198 
  C22          -2.7097877312     -1.9094792274      2.3328230168 
  C23          -2.6332593259     -1.9776224076      3.7367162723 
  C24          -1.5323793991     -2.4998835426      4.4215486242 
  C25          -0.4834933927     -2.9751426397      3.6298823587 
  C26          -0.4959410722     -2.9302975633      2.2233286354 
  C27           0.6597165394     -3.6503670691      1.5432455634 
  C28           0.4111849899     -5.1687471161      1.6369697773 
  C29           2.0520753415     -3.3232316462      2.1205782138 
  C30          -4.9530607118     -2.1534087172      1.1069719836 
  C31          -3.9580805555     -1.2021048488      1.8051498680 
  C32          -4.7096460811     -0.4861312461      2.9486023471 
  C33          -2.9072636694     -2.5739288866      6.5264737947 
  C34          -1.4885595395     -2.5593439017      5.9346712514 
  C35          -0.6691003357     -3.7673209769      6.4172500021 
  O36          -0.4225270217     -0.4247376911     -2.8440797967 
  C37          -0.3948513675     -0.3896798114     -4.2552232135 
  O38          -3.1425212944     -4.2311405531      0.2038031613 
  C39          -3.8201344277     -5.3387864864     -0.3554691446 
  H40           1.5822060848     -0.0665614352     -1.7770703095 
  H41           2.1417391815     -2.1481567646     -0.3453973416 
  H42           2.9062804032     -1.0642803858      0.8395885145 
  H43           4.5911690119     -2.0353601341     -0.7303530260 
  H44           3.7126636876     -1.3396092859     -2.1324913423 
  H45           5.6323136216      0.1368316030     -1.5136632096 
  H46           5.0500819945      0.2326392999      0.1828428856 
  H47           4.3737967508      2.2869141591     -1.0411373245 
  H48           3.5906111321      1.3127050971     -2.3289188772 
  H49           1.9078223055      2.2013732985     -0.6940038251 
  H50           2.7542816098      1.4088773368      0.6508793297 
  H51          -0.7997930000      1.2640200000     -1.7961970000 
  H52          -2.3371980000      1.5493870000      0.8518520000 
  H53          -2.7961720000      0.4982840000     -0.5365800000 
  H54          -3.1011620000      2.4693480000     -2.0082010000 
  H55          -4.1204230000      2.6175750000     -0.5372480000 
  H56          -2.4356110000      4.1371990000      0.5230460000 
  H57          -2.9491600000      4.7878510000     -1.0721710000 
  H58          -0.9047120000      3.8440790000     -2.1575050000 
  H59          -0.4455580000      4.9074950000     -0.7861250000 
  H60          -0.0908130000      2.9280340000      0.6918250000 
  H61           0.8719580000      2.7918690000     -0.8252090000 
  H62          -3.2516120760     -3.9563310413     -2.4611165482 
  H63          -2.0569832094     -2.3305787981     -3.7826179339 
  H64          -3.4628719227     -1.5951733762      4.3492819409 
  H65           0.3683605404     -3.4233840986      4.1587189205 
  H66           0.6619608496     -3.4545333448      0.4518470850 
  H67           0.3973772249     -5.5217594052      2.6934197610 
  H68          -0.5673128590     -5.4437891920      1.1783759355 
  H69           1.2040407121     -5.7424013396      1.1030713023 
  H70           2.2199262441     -3.7634442479      3.1283586141 
  H71           2.8607204490     -3.7399521189      1.4784284700 
  H72           2.2093754295     -2.2252668878      2.2097788247 
  H73          -5.4942763953     -2.8081432137      1.8261930092 
  H74          -5.7284658101     -1.5791457207      0.5492453935 
  H75          -4.4510166942     -2.8333890002      0.3860004306 
  H76          -3.6912013098     -0.3815933233      1.1025868073 
  H77          -5.1418112689     -1.1956643412      3.6895348300 
  H78          -5.5534007069      0.1271944857      2.5554129552 
  H79          -4.0388923095      0.1964708964      3.5129202953 
  H92          -3.4711386362     -3.4878494083      6.2317498443 
  H81          -3.4899483542     -1.6883840491      6.1821853398 
  H94          -2.8775062106     -2.5459398190      7.6401549181 
  H95          -0.9796190801     -1.6420006822      6.3191632948 
  H84          -1.1379112801     -4.7332526400      6.1219309960 
  H85           0.3605612680     -3.7439206264      5.9911831052 
  H86          -0.5746499634     -3.7697668420      7.5276738246 
  H87           0.2662325470      0.4570177668     -4.5473824852 
  H88          -1.4248372171     -0.2050876112     -4.6362133438 
  H89           0.0354341860     -1.3447297159     -4.6338480700 
  H90          -4.1280411365     -6.0032803575      0.4824275867 
  H91          -4.7246548741     -4.9759584177     -0.8946163398 
  H104         -3.1227742304     -5.8966496108     -1.0211133810 
   
  principal moments of inertia:
        amu*angstrom^2:              7280.34269              8677.76101             10870.72435
                g*cm^2:          1.20892920E-36          1.44097594E-36          1.80512602E-36
   
  rotational constants:
               cm^(-1):      0.00231550      0.00194262      0.00155074
                   GHz:      0.06941693      0.05823841      0.04648991
   
  Molecular weight:     816.23 amu
   
  Stoichiometry: PdC41PH57BrO2F
  Molecular Point Group: C1      
  Point Group used: C1
  
 
Number of optimization coordinates:   349
Number of independent coordinates:    349
Number of non-redundant coordinates:  306
Number of frozen coordinates:           0
Number of harmonic constraints:         0
 
Number of geometric degrees of freedom:   306
Maximum geometric degrees of freedom:     306
 " " " " " excluding dummy atoms:         306
 
 
  bond lengths (angstroms):
 
 P1      -Pd2     :   2.276101      P1      -C3      :   1.857334
 P1      -C9      :   1.770542      P1      -C15     :   1.808416
 Pd2     -Br3     :   2.555583      Pd2     -C76     :   1.970868
 C73     -C74     :   1.386831      C73     -C78     :   1.387318
 C73     -F79     :   1.355048      C74     -C75     :   1.396199
 C74     -H80     :   1.086986      C75     -C76     :   1.400513
 C75     -H14     :   1.080000      C76     -C77     :   1.400060
 C77     -C78     :   1.397354      C77     -H82     :   1.085556
 C78     -H83     :   1.087375      C3      -C4      :   1.544289
 C3      -C8      :   1.544157      C3      -H40     :   1.113235
 C4      -C5      :   1.536170      C4      -H41     :   1.112894
 C4      -H42     :   1.112691      C5      -C6      :   1.534578
 C5      -H43     :   1.116748      C5      -H44     :   1.116164
 C6      -C7      :   1.534480      C6      -H45     :   1.116578
 C6      -H46     :   1.116229      C7      -C8      :   1.536332
 C7      -H47     :   1.116723      C7      -H48     :   1.116110
 C8      -H49     :   1.113369      C8      -H50     :   1.113832
 C9      -C10     :   1.537620      C9      -C14     :   1.539466
 C9      -H51     :   1.114178      C10     -C11     :   1.534212
 C10     -H52     :   1.115632      C10     -H53     :   1.115267
 C11     -C12     :   1.533018      C11     -H54     :   1.116129
 C11     -H55     :   1.116732      C12     -C13     :   1.533145
 C12     -H56     :   1.116092      C12     -H57     :   1.116638
 C13     -C14     :   1.535945      C13     -H58     :   1.116295
 C13     -H59     :   1.116769      C14     -H60     :   1.115539
 C14     -H61     :   1.114096      C15     -C16     :   1.426762
 C15     -C20     :   1.415341      C16     -C17     :   1.415700
 C16     -C21     :   1.426835      C17     -C18     :   1.403418
 C17     -O38     :   1.366604      C18     -C19     :   1.395011
 C18     -H62     :   1.101428      C19     -C20     :   1.401987
 C19     -H63     :   1.101558      C20     -O36     :   1.364281
 C21     -C22     :   1.430491      C21     -C26     :   1.424472
 C22     -C23     :   1.407628      C22     -C31     :   1.528742
 C23     -C24     :   1.397744      C23     -H64     :   1.099891
 C24     -C25     :   1.397415      C24     -C34     :   1.514924
 C25     -C26     :   1.407323      C25     -H65     :   1.098291
 C26     -C27     :   1.522024      C27     -C28     :   1.541438
 C27     -C29     :   1.542399      C27     -H66     :   1.108831
 C28     -H67     :   1.113955      C28     -H68     :   1.115085
 C28     -H69     :   1.114786      C29     -H70     :   1.112467
 C29     -H71     :   1.113517      C29     -H72     :   1.112756
 C30     -C31     :   1.543508      C30     -H73     :   1.113046
 C30     -H74     :   1.114491      C30     -H75     :   1.110955
 C31     -C32     :   1.544329      C31     -H76     :   1.112681
 C32     -H77     :   1.113187      C32     -H78     :   1.114759
 C32     -H79     :   1.110996      C33     -C34     :   1.537259
 C33     -H92     :   1.113583      C33     -H81     :   1.114561
 C33     -H94     :   1.114430      C34     -C35     :   1.537402
 C34     -H95     :   1.117306      C35     -H84     :   1.113562
 C35     -H85     :   1.114578      C35     -H86     :   1.114436
 O36     -C37     :   1.411850      C37     -H87     :   1.113232
 C37     -H88     :   1.113597      C37     -H89     :   1.113832
 O38     -C39     :   1.413798      C39     -H90     :   1.112848
 C39     -H91     :   1.113769      C39     -H104    :   1.113824
 
  bond angles:
 
 C3      -P1      -Pd2     : 111.334041  C9      -P1      -Pd2     : 112.997327
 C9      -P1      -C3      : 106.751716  C15     -P1      -Pd2     : 112.139500
 C15     -P1      -C3      : 110.332238  C15     -P1      -C9      : 102.861598
 Br3     -Pd2     -P1      : 172.730742  C76     -Pd2     -P1      :  91.810189
 C76     -Pd2     -Br3     :  95.179054  C78     -C73     -C74     : 121.799250
 F79     -C73     -C74     : 119.119355  F79     -C73     -C78     : 119.081372
 C75     -C74     -C73     : 118.851227  H80     -C74     -C73     : 119.583608
 H80     -C74     -C75     : 121.543804  C76     -C75     -C74     : 120.772927
 H14     -C75     -C74     : 120.000000  H14     -C75     -C76     : 119.227073
 C75     -C76     -Pd2     : 122.031368  C77     -C76     -Pd2     : 118.881056
 C77     -C76     -C75     : 118.939883  C78     -C77     -C76     : 120.718410
 H82     -C77     -C76     : 119.973007  H82     -C77     -C78     : 119.308555
 C77     -C78     -C73     : 118.849083  H83     -C78     -C73     : 119.584134
 H83     -C78     -C77     : 121.566745  C4      -C3      -P1      : 116.760510
 C8      -C3      -P1      : 114.646323  C8      -C3      -C4      : 106.847527
 H40     -C3      -P1      : 103.662995  H40     -C3      -C4      : 108.314501
 H40     -C3      -C8      : 105.907946  C5      -C4      -C3      : 111.211448
 H41     -C4      -C3      : 111.679997  H41     -C4      -C5      : 108.883871
 H42     -C4      -C3      : 110.248545  H42     -C4      -C5      : 108.537431
 H42     -C4      -H41     : 106.102112  C6      -C5      -C4      : 110.601118
 H43     -C5      -C4      : 110.027297  H43     -C5      -C6      : 109.750386
 H44     -C5      -C4      : 109.576838  H44     -C5      -C6      : 109.815095
 H44     -C5      -H43     : 107.000444  C7      -C6      -C5      : 110.724618
 H45     -C6      -C5      : 110.104777  H45     -C6      -C7      : 110.112838
 H46     -C6      -C5      : 109.364249  H46     -C6      -C7      : 109.342233
 H46     -C6      -H45     : 107.115239  C8      -C7      -C6      : 110.886276
 H47     -C7      -C6      : 109.769420  H47     -C7      -C8      : 110.013431
 H48     -C7      -C6      : 109.608747  H48     -C7      -C8      : 109.498195
 H48     -C7      -H47     : 106.982164  C7      -C8      -C3      : 111.502229
 H49     -C8      -C3      : 111.388588  H49     -C8      -C7      : 109.111490
 H50     -C8      -C3      : 109.862699  H50     -C8      -C7      : 109.045316
 H50     -C8      -H49     : 105.745522  C10     -C9      -P1      : 110.857327
 C14     -C9      -P1      : 115.928139  C14     -C9      -C10     : 109.378978
 H51     -C9      -P1      : 106.000389  H51     -C9      -C10     : 107.371173
 H51     -C9      -C14     : 106.847078  C11     -C10     -C9      : 112.732647
 H52     -C10     -C9      : 108.720752  H52     -C10     -C11     : 109.429831
 H53     -C10     -C9      : 109.762611  H53     -C10     -C11     : 108.413472
 H53     -C10     -H52     : 107.656261  C12     -C11     -C10     : 110.626189
 H54     -C11     -C10     : 109.539408  H54     -C11     -C12     : 109.686039
 H55     -C11     -C10     : 109.983071  H55     -C11     -C12     : 109.866913
 H55     -C11     -H54     : 107.069708  C13     -C12     -C11     : 110.000606
 H56     -C12     -C11     : 109.699947  H56     -C12     -C13     : 109.677805
 H57     -C12     -C11     : 110.062984  H57     -C12     -C13     : 110.103242
 H57     -C12     -H56     : 107.252736  C14     -C13     -C12     : 111.171369
 H58     -C13     -C12     : 109.393996  H58     -C13     -C14     : 109.478303
 H59     -C13     -C12     : 109.792782  H59     -C13     -C14     : 109.907327
 H59     -C13     -H58     : 107.002557  C13     -C14     -C9      : 112.434621
 H60     -C14     -C9      : 109.280610  H60     -C14     -C13     : 109.622954
 H61     -C14     -C9      : 109.999296  H61     -C14     -C13     : 107.554917
 H61     -C14     -H60     : 107.833293  C16     -C15     -P1      : 123.832937
 C20     -C15     -P1      : 114.098396  C20     -C15     -C16     : 121.343339
 C17     -C16     -C15     : 119.225455  C21     -C16     -C15     : 124.449485
 C21     -C16     -C17     : 116.322323  C18     -C17     -C16     : 118.736932
 O38     -C17     -C16     : 120.443358  O38     -C17     -C18     : 120.691735
 C19     -C18     -C17     : 121.573946  H62     -C18     -C17     : 121.131545
 H62     -C18     -C19     : 117.293272  C20     -C19     -C18     : 121.133741
 H63     -C19     -C18     : 117.674159  H63     -C19     -C20     : 121.191582
 C19     -C20     -C15     : 117.949811  O36     -C20     -C15     : 121.271958
 O36     -C20     -C19     : 120.765950  C22     -C21     -C16     : 120.618772
 C26     -C21     -C16     : 121.905017  C26     -C21     -C22     : 117.467414
 C23     -C22     -C21     : 119.764417  C31     -C22     -C21     : 125.747183
 C31     -C22     -C23     : 114.270544  C24     -C23     -C22     : 123.337088
 H64     -C23     -C22     : 119.842345  H64     -C23     -C24     : 116.815584
 C25     -C24     -C23     : 116.147259  C34     -C24     -C23     : 121.790863
 C34     -C24     -C25     : 122.058730  C26     -C25     -C24     : 123.280324
 H65     -C25     -C24     : 116.627553  H65     -C25     -C26     : 120.073501
 C25     -C26     -C21     : 119.989746  C27     -C26     -C21     : 124.439266
 C27     -C26     -C25     : 115.137511  C28     -C27     -C26     : 108.447251
 C29     -C27     -C26     : 114.697965  C29     -C27     -C28     : 109.372768
 H66     -C27     -C26     : 110.964197  H66     -C27     -C28     : 103.541195
 H66     -C27     -C29     : 109.216446  H67     -C28     -C27     : 111.828064
 H68     -C28     -C27     : 111.066057  H68     -C28     -H67     : 107.517143
 H69     -C28     -C27     : 111.290528  H69     -C28     -H67     : 107.454287
 H69     -C28     -H68     : 107.470254  H70     -C29     -C27     : 113.039231
 H71     -C29     -C27     : 111.120614  H71     -C29     -H70     : 105.352549
 H72     -C29     -C27     : 111.523991  H72     -C29     -H70     : 107.247586
 H72     -C29     -H71     : 108.230131  H73     -C30     -C31     : 112.563474
 H74     -C30     -C31     : 110.933396  H74     -C30     -H73     : 106.747858
 H75     -C30     -C31     : 112.301123  H75     -C30     -H73     : 106.202930
 H75     -C30     -H74     : 107.759837  C30     -C31     -C22     : 113.410265
 C32     -C31     -C22     : 110.875326  C32     -C31     -C30     : 107.874938
 H76     -C31     -C22     : 111.303542  H76     -C31     -C30     : 108.874448
 H76     -C31     -C32     : 104.025938  H77     -C32     -C31     : 112.721430
 H78     -C32     -C31     : 111.239696  H78     -C32     -H77     : 106.953943
 H79     -C32     -C31     : 111.538001  H79     -C32     -H77     : 106.733468
 H79     -C32     -H78     : 107.342713  H92     -C33     -C34     : 111.913632
 H81     -C33     -C34     : 110.855877  H81     -C33     -H92     : 107.793726
 H94     -C33     -C34     : 111.089936  H94     -C33     -H92     : 107.374596
 H94     -C33     -H81     : 107.619723  C33     -C34     -C24     : 110.989231
 C35     -C34     -C24     : 111.086461  C35     -C34     -C33     : 111.322334
 H95     -C34     -C24     : 108.945303  H95     -C34     -C33     : 107.198855
 H95     -C34     -C35     : 107.115307  H84     -C35     -C34     : 111.957177
 H85     -C35     -C34     : 110.849828  H85     -C35     -H84     : 107.803871
 H86     -C35     -C34     : 111.079362  H86     -C35     -H84     : 107.338962
 H86     -C35     -H85     : 107.616392  C37     -O36     -C20     : 125.347685
 H87     -C37     -O36     : 107.027922  H88     -C37     -O36     : 109.143780
 H88     -C37     -H87     : 109.474790  H89     -C37     -O36     : 109.028651
 H89     -C37     -H87     : 109.483317  H89     -C37     -H88     : 112.528252
 C39     -O38     -C17     : 124.495828  H90     -C39     -O38     : 107.612303
 H91     -C39     -O38     : 108.996383  H91     -C39     -H90     : 109.529437
 H104    -C39     -O38     : 109.191410  H104    -C39     -H90     : 108.912965
 H104    -C39     -H91     : 112.478480
 
  torsional angles:
 
 P1      -Pd2     -C76     -C75     : -87.791096
 P1      -Pd2     -C76     -C77     :  96.675226
 P1      -C3      -C4      -C5      : 169.923669
 P1      -C3      -C4      -H41     :  48.060819
 P1      -C3      -C4      -H42     : -69.634716
 P1      -C3      -C8      -C7      :-169.287675
 P1      -C3      -C8      -H49     : -47.131717
 P1      -C3      -C8      -H50     :  69.699520
 P1      -C9      -C10     -C11     :-176.567334
 P1      -C9      -C10     -H52     :  61.912220
 P1      -C9      -C10     -H53     : -55.607106
 P1      -C9      -C14     -C13     :-179.962271
 P1      -C9      -C14     -H60     : -58.000942
 P1      -C9      -C14     -H61     :  60.201212
 P1      -C15     -C16     -C17     : 171.983891
 P1      -C15     -C16     -C21     :  -8.641080
 P1      -C15     -C20     -C19     :-172.587532
 P1      -C15     -C20     -O36     :   6.146929
 Pd2     -P1      -C3      -C4      :  57.475667
 Pd2     -P1      -C3      -C8      : -68.574391
 Pd2     -P1      -C3      -H40     : 176.472234
 Pd2     -P1      -C9      -C10     : -60.723470
 Pd2     -P1      -C9      -C14     :  64.731663
 Pd2     -P1      -C9      -H51     :-176.931342
 Pd2     -P1      -C15     -C16     :   4.069141
 Pd2     -P1      -C15     -C20     : 174.400874
 Pd2     -C76     -C75     -C74     :-173.175344
 Pd2     -C76     -C75     -H14     :   6.824656
 Pd2     -C76     -C77     -C78     : 173.082800
 Pd2     -C76     -C77     -H82     :  -6.856619
 Br3     -Pd2     -P1      -C3      :-141.600000
 Br3     -Pd2     -P1      -C9      :  98.273617
 Br3     -Pd2     -P1      -C15     : -17.431778
 Br3     -Pd2     -C76     -C75     :  94.209159
 Br3     -Pd2     -C76     -C77     : -81.324518
 C73     -C74     -C75     -C76     :  -0.186500
 C73     -C74     -C75     -H14     : 179.813500
 C73     -C78     -C77     -C76     :   0.652883
 C73     -C78     -C77     -H82     :-179.407300
 C74     -C73     -C78     -C77     :   1.604524
 C74     -C73     -C78     -H83     :-178.325638
 C74     -C75     -C76     -C77     :   2.355796
 C75     -C74     -C73     -C78     :  -1.835403
 C75     -C74     -C73     -F79     : 178.220350
 C75     -C76     -C77     -C78     :  -2.590835
 C75     -C76     -C77     -H82     : 177.469747
 C76     -Pd2     -P1      -C3      :  54.345556
 C76     -Pd2     -P1      -C9      : -65.780827
 C76     -Pd2     -P1      -C15     : 178.513778
 C76     -C75     -C74     -H80     : 178.124774
 C76     -C77     -C78     -H83     :-179.418397
 C77     -C76     -C75     -H14     :-177.644204
 C77     -C78     -C73     -F79     :-178.451208
 C78     -C73     -C74     -H80     : 179.819533
 F79     -C73     -C74     -H80     :  -0.124714
 F79     -C73     -C78     -H83     :   1.618630
 H80     -C74     -C75     -H14     :  -1.875226
 H82     -C77     -C78     -H83     :   0.521420
 C3      -P1      -C9      -C10     : 176.560205
 C3      -P1      -C9      -C14     : -57.984661
 C3      -P1      -C9      -H51     :  60.352333
 C3      -P1      -C15     -C16     : 128.793160
 C3      -P1      -C15     -C20     : -60.875107
 C3      -C4      -C5      -C6      :  59.308658
 C3      -C4      -C5      -H43     :-179.274375
 C3      -C4      -C5      -H44     : -61.892393
 C3      -C8      -C7      -C6      : -58.192460
 C3      -C8      -C7      -H47     :-179.812198
 C3      -C8      -C7      -H48     :  62.882889
 C4      -C3      -P1      -C9      :-178.773781
 C4      -C3      -P1      -C15     : -67.707767
 C4      -C3      -C8      -C7      :  59.675156
 C4      -C3      -C8      -H49     :-178.168885
 C4      -C3      -C8      -H50     : -61.337649
 C4      -C5      -C6      -C7      : -55.119754
 C4      -C5      -C6      -H45     :-177.126106
 C4      -C5      -C6      -H46     :  65.433232
 C5      -C4      -C3      -C8      : -60.233288
 C5      -C4      -C3      -H40     :  53.463667
 C5      -C6      -C7      -C8      :  54.573566
 C5      -C6      -C7      -H47     : 176.336307
 C5      -C6      -C7      -H48     : -66.436546
 C6      -C5      -C4      -H41     :-177.216787
 C6      -C5      -C4      -H42     : -62.137696
 C6      -C7      -C8      -H49     : 178.348316
 C6      -C7      -C8      -H50     :  63.296121
 C7      -C6      -C5      -H43     :-176.700207
 C7      -C6      -C5      -H44     :  65.940081
 C7      -C8      -C3      -H40     : -55.646904
 C8      -C3      -P1      -C9      :  55.176161
 C8      -C3      -P1      -C15     : 166.242174
 C8      -C3      -C4      -H41     : 177.903862
 C8      -C3      -C4      -H42     :  60.208326
 C8      -C7      -C6      -H45     : 176.575196
 C8      -C7      -C6      -H46     : -65.992517
 C9      -P1      -C3      -H40     : -59.777214
 C9      -P1      -C15     -C16     :-117.635352
 C9      -P1      -C15     -C20     :  52.696382
 C9      -C10     -C11     -C12     : -57.021071
 C9      -C10     -C11     -H54     :  64.010740
 C9      -C10     -C11     -H55     :-178.571318
 C9      -C14     -C13     -C12     :  56.244359
 C9      -C14     -C13     -H58     : -64.733025
 C9      -C14     -C13     -H59     : 178.011177
 C10     -C9      -P1      -C15     :  60.397225
 C10     -C9      -C14     -C13     : -53.757089
 C10     -C9      -C14     -H60     :  68.204241
 C10     -C9      -C14     -H61     :-173.593606
 C10     -C11     -C12     -C13     :  56.989562
 C10     -C11     -C12     -H56     : -63.737169
 C10     -C11     -C12     -H57     : 178.478605
 C11     -C10     -C9      -C14     :  54.380734
 C11     -C10     -C9      -H51     : -61.210102
 C11     -C12     -C13     -C14     : -56.858653
 C11     -C12     -C13     -H58     :  64.168238
 C11     -C12     -C13     -H59     :-178.692164
 C12     -C11     -C10     -H52     :  64.096393
 C12     -C11     -C10     -H53     :-178.747869
 C12     -C13     -C14     -H60     : -65.522455
 C12     -C13     -C14     -H61     : 177.489555
 C13     -C12     -C11     -H54     : -63.955251
 C13     -C12     -C11     -H55     : 178.608293
 C13     -C14     -C9      -H51     :  62.168088
 C14     -C9      -P1      -C15     :-174.147642
 C14     -C9      -C10     -H52     : -67.139713
 C14     -C9      -C10     -H53     : 175.340961
 C14     -C13     -C12     -H56     :  63.881404
 C14     -C13     -C12     -H57     :-178.323655
 C15     -P1      -C3      -H40     :  51.288800
 C15     -P1      -C9      -H51     : -55.810647
 C15     -C16     -C17     -C18     :  -1.211674
 C15     -C16     -C17     -O38     : 174.704477
 C15     -C16     -C21     -C22     : 106.312724
 C15     -C16     -C21     -C26     : -74.793750
 C15     -C20     -C19     -C18     :   0.582654
 C15     -C20     -C19     -H63     :-179.685155
 C15     -C20     -O36     -C37     : 173.920676
 C16     -C15     -C20     -C19     :  -1.988453
 C16     -C15     -C20     -O36     : 176.746008
 C16     -C17     -C18     -C19     :  -0.160242
 C16     -C17     -C18     -H62     : 179.424135
 C16     -C17     -O38     -C39     :-169.338857
 C16     -C21     -C22     -C23     :-179.803181
 C16     -C21     -C22     -C31     :  -5.486577
 C16     -C21     -C26     -C25     :-179.918040
 C16     -C21     -C26     -C27     :  -7.851630
 C17     -C16     -C15     -C20     :   2.324640
 C17     -C16     -C21     -C22     : -74.295785
 C17     -C16     -C21     -C26     : 104.597740
 C17     -C18     -C19     -C20     :   0.485811
 C17     -C18     -C19     -H63     :-179.255501
 C17     -O38     -C39     -H90     : 173.917434
 C17     -O38     -C39     -H91     : -67.382869
 C17     -O38     -C39     -H104    :  55.845501
 C18     -C17     -C16     -C21     : 179.363309
 C18     -C17     -O38     -C39     :   6.496845
 C18     -C19     -C20     -O36     :-178.158510
 C19     -C18     -C17     -O38     :-176.065905
 C19     -C20     -O36     -C37     :  -7.380356
 C20     -C15     -C16     -C21     :-178.300331
 C20     -C19     -C18     -H62     :-179.113854
 C20     -O36     -C37     -H87     :-176.871282
 C20     -O36     -C37     -H88     :  64.743069
 C20     -O36     -C37     -H89     : -58.537095
 C21     -C16     -C17     -O38     :  -4.720540
 C21     -C22     -C23     -C24     :  -0.533899
 C21     -C22     -C23     -H64     : 178.627488
 C21     -C22     -C31     -C30     :  74.907180
 C21     -C22     -C31     -C32     :-163.553379
 C21     -C22     -C31     -H76     : -48.267881
 C21     -C26     -C25     -C24     :  -0.025920
 C21     -C26     -C25     -H65     : 178.350264
 C21     -C26     -C27     -C28     : -97.611058
 C21     -C26     -C27     -C29     : 139.820877
 C21     -C26     -C27     -H66     :  15.476161
 C22     -C21     -C26     -C25     :  -0.991216
 C22     -C21     -C26     -C27     : 171.075193
 C22     -C23     -C24     -C25     :  -0.479812
 C22     -C23     -C24     -C34     :-179.846713
 C22     -C31     -C30     -H73     :  72.797348
 C22     -C31     -C30     -H74     :-167.661808
 C22     -C31     -C30     -H75     : -47.005828
 C22     -C31     -C32     -H77     : -66.380744
 C22     -C31     -C32     -H78     : 173.491349
 C22     -C31     -C32     -H79     :  53.675279
 C23     -C22     -C21     -C26     :   1.255466
 C23     -C22     -C31     -C30     :-110.503934
 C23     -C22     -C31     -C32     :  11.035507
 C23     -C22     -C31     -H76     : 126.321005
 C23     -C24     -C25     -C26     :   0.764190
 C23     -C24     -C25     -H65     :-177.663878
 C23     -C24     -C34     -C33     :  24.275623
 C23     -C24     -C34     -C35     : 148.701470
 C23     -C24     -C34     -H95     : -93.533846
 C24     -C23     -C22     -C31     :-175.475746
 C24     -C25     -C26     -C27     :-172.802318
 C24     -C34     -C33     -H92     :  63.944766
 C24     -C34     -C33     -H81     : -56.435995
 C24     -C34     -C33     -H94     :-176.046948
 C24     -C34     -C35     -H84     : -64.132907
 C24     -C34     -C35     -H85     :  56.286118
 C24     -C34     -C35     -H86     : 175.881942
 C25     -C24     -C23     -H64     :-179.664753
 C25     -C24     -C34     -C33     :-155.053806
 C25     -C24     -C34     -C35     : -30.627960
 C25     -C24     -C34     -H95     :  87.136725
 C25     -C26     -C27     -C28     :  74.800742
 C25     -C26     -C27     -C29     : -47.767323
 C25     -C26     -C27     -H66     :-172.112039
 C26     -C21     -C22     -C31     : 175.572070
 C26     -C25     -C24     -C34     :-179.870756
 C26     -C27     -C28     -H67     : -62.918265
 C26     -C27     -C28     -H68     :  57.197085
 C26     -C27     -C28     -H69     : 176.891982
 C26     -C27     -C29     -H70     :  71.409840
 C26     -C27     -C29     -H71     :-170.380230
 C26     -C27     -C29     -H72     : -49.526381
 C27     -C26     -C25     -H65     :   5.573866
 C28     -C27     -C29     -H70     : -50.657022
 C28     -C27     -C29     -H71     :  67.552907
 C28     -C27     -C29     -H72     :-171.593244
 C29     -C27     -C28     -H67     :  62.827879
 C29     -C27     -C28     -H68     :-177.056771
 C29     -C27     -C28     -H69     : -57.361874
 C30     -C31     -C32     -H77     :  58.354625
 C30     -C31     -C32     -H78     : -61.773282
 C30     -C31     -C32     -H79     : 178.410648
 C31     -C22     -C23     -H64     :   3.685641
 C32     -C31     -C30     -H73     : -50.406801
 C32     -C31     -C30     -H74     :  69.134043
 C32     -C31     -C30     -H75     :-170.209977
 C33     -C34     -C35     -H84     :  60.104192
 C33     -C34     -C35     -H85     :-179.476782
 C33     -C34     -C35     -H86     : -59.880958
 C34     -C24     -C23     -H64     :   0.968346
 C34     -C24     -C25     -H65     :   1.701176
 C35     -C34     -C33     -H92     : -60.347228
 C35     -C34     -C33     -H81     : 179.272011
 C35     -C34     -C33     -H94     :  59.661058
 O36     -C20     -C19     -H63     :   1.573680
 O38     -C17     -C18     -H62     :   3.518472
 H40     -C3      -C4      -H41     : -68.399183
 H40     -C3      -C4      -H42     : 173.905282
 H40     -C3      -C8      -H49     :  66.509054
 H40     -C3      -C8      -H50     :-176.659709
 H41     -C4      -C5      -H43     : -55.799821
 H41     -C4      -C5      -H44     :  61.582161
 H42     -C4      -C5      -H43     :  59.279271
 H42     -C4      -C5      -H44     : 176.661253
 H43     -C5      -C6      -H45     :  61.293441
 H43     -C5      -C6      -H46     : -56.147221
 H44     -C5      -C6      -H45     : -56.066271
 H44     -C5      -C6      -H46     :-173.506933
 H45     -C6      -C7      -H47     : -61.662063
 H45     -C6      -C7      -H48     :  55.565084
 H46     -C6      -C7      -H47     :  55.770224
 H46     -C6      -C7      -H48     : 172.997372
 H47     -C7      -C8      -H49     :  56.728577
 H47     -C7      -C8      -H50     : -58.323618
 H48     -C7      -C8      -H49     : -60.576336
 H48     -C7      -C8      -H50     :-175.628531
 H51     -C9      -C10     -H52     : 177.269451
 H51     -C9      -C10     -H53     :  59.750125
 H51     -C9      -C14     -H60     :-175.870582
 H51     -C9      -C14     -H61     : -57.668429
 H52     -C10     -C11     -H54     :-174.871796
 H52     -C10     -C11     -H55     : -57.453854
 H53     -C10     -C11     -H54     : -57.716058
 H53     -C10     -C11     -H55     :  59.701883
 H54     -C11     -C12     -H56     : 175.318019
 H54     -C11     -C12     -H57     :  57.533792
 H55     -C11     -C12     -H56     :  57.881563
 H55     -C11     -C12     -H57     : -59.902664
 H56     -C12     -C13     -H58     :-175.091706
 H56     -C12     -C13     -H59     : -57.952107
 H57     -C12     -C13     -H58     : -57.296765
 H57     -C12     -C13     -H59     :  59.842834
 H58     -C13     -C14     -H60     : 173.500161
 H58     -C13     -C14     -H61     :  56.512171
 H59     -C13     -C14     -H60     :  56.244363
 H59     -C13     -C14     -H61     : -60.743627
 H62     -C18     -C19     -H63     :   1.144834
 H66     -C27     -C28     -H67     : 179.158608
 H66     -C27     -C28     -H68     : -60.726042
 H66     -C27     -C28     -H69     :  58.968856
 H66     -C27     -C29     -H70     :-163.325785
 H66     -C27     -C29     -H71     : -45.115856
 H66     -C27     -C29     -H72     :  75.737993
 H73     -C30     -C31     -H76     :-162.702274
 H74     -C30     -C31     -H76     : -43.161430
 H75     -C30     -C31     -H76     :  77.494550
 H76     -C31     -C32     -H77     : 173.880183
 H76     -C31     -C32     -H78     :  53.752275
 H76     -C31     -C32     -H79     : -66.063794
 H92     -C33     -C34     -H95     :-177.188994
 H81     -C33     -C34     -H95     :  62.430244
 H94     -C33     -C34     -H95     : -57.180708
 H95     -C34     -C35     -H84     : 176.996873
 H95     -C34     -C35     -H85     : -62.584102
 H95     -C34     -C35     -H86     :  57.011722
 
  nuclear repulsion energy.......          7515.030579244 hartrees
  
  Detected an organometallic with only one TM atom. 
  
  Oxidation state on metal       2 is     2
  Formal multiplet on metal      2 is     1
  Formal charge on ligand        3 is    -1
  Formal multiplet on ligand     3 is     1
  Formal charge on ligand        4 is    -1
  Formal multiplet on ligand     4 is     1
  
 
  Will use High-Quality Initial guess for organometallics
       including d-d repulsion (iguess=30)
 
 Non-default options chosen:
   SCF calculation type: DFT(b3pw91-d3)              
   DFT=Becke_3_Parameter/HF+Slater+Becke88+PW91+PW-GGAIIC (B3PW91-D3)
   Geometry will be optimized in redundant internal coordinates
   Solvation energy will be computed using PBF
     -solute cavity energy will not be included
     -surface area terms will not be included
   Vibrational frequencies and related properties will be computed
      from analytic second derivatives
   IR intensities will be computed
   Thermochemical properties will be computed
   Maximum number of geometry steps: 100
   Scaling standard convergence criteria by a factor of   5.00
   Solvent: benzene                                                         
   Internal dielectric constant:    1.000
   Continuum dielectric constant:   2.283
   Solvent probe molecule radius:   2.600
  
 Non-default print settings:
     11=  2
  
 Temporary integer options set:
     21= -1  73=  2
  
  atom       vdw   vdw2    cov     mass  grid  daf  charge   basis
  P1        2.147  2.074  1.060   30.974    Y    Y      Y    ps_6-31g*
  Pd2       1.450  1.450  1.280  105.903    Y    Y      Y    lacv3p*
  Br3       2.095  2.095  1.140   78.918    Y    Y      Y    lav3p*
  C73       1.949  1.900  0.770   12.000    Y    Y      Y    ps_6-31g*
  C74       1.949  1.900  0.770   12.000    Y    Y      Y    ps_6-31g*
  C75       1.949  1.900  0.770   12.000    Y    Y      Y    ps_6-31g*
  C76       1.949  1.900  0.770   12.000    Y    Y      Y    ps_6-31g*
  C77       1.949  1.900  0.770   12.000    Y    Y      Y    ps_6-31g*
  C78       1.949  1.900  0.770   12.000    Y    Y      Y    ps_6-31g*
  F79       1.736  1.682  0.720   18.998    Y    Y      Y    ps_6-31g*
  H80       1.597  1.150  0.320    1.008    Y    Y      Y    ps_6-31g*
  H82       1.597  1.150  0.320    1.008    Y    Y      Y    ps_6-31g*
  H83       1.597  1.150  0.320    1.008    Y    Y      Y    ps_6-31g*
  H14       1.597  1.150  0.320    1.008    Y    Y      Y    ps_6-31g*
  C3        1.949  1.900  0.770   12.000    Y    Y      Y    ps_6-31g*
  C4        1.949  1.900  0.770   12.000    Y    Y      Y    ps_6-31g*
  C5        1.949  1.900  0.770   12.000    Y    Y      Y    ps_6-31g*
  C6        1.949  1.900  0.770   12.000    Y    Y      Y    ps_6-31g*
  C7        1.949  1.900  0.770   12.000    Y    Y      Y    ps_6-31g*
  C8        1.949  1.900  0.770   12.000    Y    Y      Y    ps_6-31g*
  C9        1.949  1.900  0.770   12.000    Y    Y      Y    ps_6-31g*
  C10       1.949  1.900  0.770   12.000    Y    Y      Y    ps_6-31g*
  C11       1.949  1.900  0.770   12.000    Y    Y      Y    ps_6-31g*
  C12       1.949  1.900  0.770   12.000    Y    Y      Y    ps_6-31g*
  C13       1.949  1.900  0.770   12.000    Y    Y      Y    ps_6-31g*
  C14       1.949  1.900  0.770   12.000    Y    Y      Y    ps_6-31g*
  C15       1.949  1.900  0.770   12.000    Y    Y      Y    ps_6-31g*
  C16       1.949  1.900  0.770   12.000    Y    Y      Y    ps_6-31g*
  C17       1.949  1.900  0.770   12.000    Y    Y      Y    ps_6-31g*
  C18       1.949  1.900  0.770   12.000    Y    Y      Y    ps_6-31g*
  C19       1.949  1.900  0.770   12.000    Y    Y      Y    ps_6-31g*
  C20       1.949  1.900  0.770   12.000    Y    Y      Y    ps_6-31g*
  C21       1.949  1.900  0.770   12.000    Y    Y      Y    ps_6-31g*
  C22       1.949  1.900  0.770   12.000    Y    Y      Y    ps_6-31g*
  C23       1.949  1.900  0.770   12.000    Y    Y      Y    ps_6-31g*
  C24       1.949  1.900  0.770   12.000    Y    Y      Y    ps_6-31g*
  C25       1.949  1.900  0.770   12.000    Y    Y      Y    ps_6-31g*
  C26       1.949  1.900  0.770   12.000    Y    Y      Y    ps_6-31g*
  C27       1.949  1.900  0.770   12.000    Y    Y      Y    ps_6-31g*
  C28       1.949  1.900  0.770   12.000    Y    Y      Y    ps_6-31g*
  C29       1.949  1.900  0.770   12.000    Y    Y      Y    ps_6-31g*
  C30       1.949  1.900  0.770   12.000    Y    Y      Y    ps_6-31g*
  C31       1.949  1.900  0.770   12.000    Y    Y      Y    ps_6-31g*
  C32       1.949  1.900  0.770   12.000    Y    Y      Y    ps_6-31g*
  C33       1.949  1.900  0.770   12.000    Y    Y      Y    ps_6-31g*
  C34       1.949  1.900  0.770   12.000    Y    Y      Y    ps_6-31g*
  C35       1.949  1.900  0.770   12.000    Y    Y      Y    ps_6-31g*
  O36       1.702  1.600  0.730   15.995    Y    Y      Y    ps_6-31g*
  C37       1.949  1.900  0.770   12.000    Y    Y      Y    ps_6-31g*
  O38       1.702  1.600  0.730   15.995    Y    Y      Y    ps_6-31g*
  C39       1.949  1.900  0.770   12.000    Y    Y      Y    ps_6-31g*
  H40       1.597  1.150  0.320    1.008    Y    Y      Y    ps_6-31g*
  H41       1.597  1.150  0.320    1.008    Y    Y      Y    ps_6-31g*
  H42       1.597  1.150  0.320    1.008    Y    Y      Y    ps_6-31g*
  H43       1.597  1.150  0.320    1.008    Y    Y      Y    ps_6-31g*
  H44       1.597  1.150  0.320    1.008    Y    Y      Y    ps_6-31g*
  H45       1.597  1.150  0.320    1.008    Y    Y      Y    ps_6-31g*
  H46       1.597  1.150  0.320    1.008    Y    Y      Y    ps_6-31g*
  H47       1.597  1.150  0.320    1.008    Y    Y      Y    ps_6-31g*
  H48       1.597  1.150  0.320    1.008    Y    Y      Y    ps_6-31g*
  H49       1.597  1.150  0.320    1.008    Y    Y      Y    ps_6-31g*
  H50       1.597  1.150  0.320    1.008    Y    Y      Y    ps_6-31g*
  H51       1.597  1.150  0.320    1.008    Y    Y      Y    ps_6-31g*
  H52       1.597  1.150  0.320    1.008    Y    Y      Y    ps_6-31g*
  H53       1.597  1.150  0.320    1.008    Y    Y      Y    ps_6-31g*
  H54       1.597  1.150  0.320    1.008    Y    Y      Y    ps_6-31g*
  H55       1.597  1.150  0.320    1.008    Y    Y      Y    ps_6-31g*
  H56       1.597  1.150  0.320    1.008    Y    Y      Y    ps_6-31g*
  H57       1.597  1.150  0.320    1.008    Y    Y      Y    ps_6-31g*
  H58       1.597  1.150  0.320    1.008    Y    Y      Y    ps_6-31g*
  H59       1.597  1.150  0.320    1.008    Y    Y      Y    ps_6-31g*
  H60       1.597  1.150  0.320    1.008    Y    Y      Y    ps_6-31g*
  H61       1.597  1.150  0.320    1.008    Y    Y      Y    ps_6-31g*
  H62       1.597  1.150  0.320    1.008    Y    Y      Y    ps_6-31g*
  H63       1.597  1.150  0.320    1.008    Y    Y      Y    ps_6-31g*
  H64       1.597  1.150  0.320    1.008    Y    Y      Y    ps_6-31g*
  H65       1.597  1.150  0.320    1.008    Y    Y      Y    ps_6-31g*
  H66       1.597  1.150  0.320    1.008    Y    Y      Y    ps_6-31g*
  H67       1.597  1.150  0.320    1.008    Y    Y      Y    ps_6-31g*
  H68       1.597  1.150  0.320    1.008    Y    Y      Y    ps_6-31g*
  H69       1.597  1.150  0.320    1.008    Y    Y      Y    ps_6-31g*
  H70       1.597  1.150  0.320    1.008    Y    Y      Y    ps_6-31g*
  H71       1.597  1.150  0.320    1.008    Y    Y      Y    ps_6-31g*
  H72       1.597  1.150  0.320    1.008    Y    Y      Y    ps_6-31g*
  H73       1.597  1.150  0.320    1.008    Y    Y      Y    ps_6-31g*
  H74       1.597  1.150  0.320    1.008    Y    Y      Y    ps_6-31g*
  H75       1.597  1.150  0.320    1.008    Y    Y      Y    ps_6-31g*
  H76       1.597  1.150  0.320    1.008    Y    Y      Y    ps_6-31g*
  H77       1.597  1.150  0.320    1.008    Y    Y      Y    ps_6-31g*
  H78       1.597  1.150  0.320    1.008    Y    Y      Y    ps_6-31g*
  H79       1.597  1.150  0.320    1.008    Y    Y      Y    ps_6-31g*
  H92       1.597  1.150  0.320    1.008    Y    Y      Y    ps_6-31g*
  H81       1.597  1.150  0.320    1.008    Y    Y      Y    ps_6-31g*
  H94       1.597  1.150  0.320    1.008    Y    Y      Y    ps_6-31g*
  H95       1.597  1.150  0.320    1.008    Y    Y      Y    ps_6-31g*
  H84       1.597  1.150  0.320    1.008    Y    Y      Y    ps_6-31g*
  H85       1.597  1.150  0.320    1.008    Y    Y      Y    ps_6-31g*
  H86       1.597  1.150  0.320    1.008    Y    Y      Y    ps_6-31g*
  H87       1.597  1.150  0.320    1.008    Y    Y      Y    ps_6-31g*
  H88       1.597  1.150  0.320    1.008    Y    Y      Y    ps_6-31g*
  H89       1.597  1.150  0.320    1.008    Y    Y      Y    ps_6-31g*
  H90       1.597  1.150  0.320    1.008    Y    Y      Y    ps_6-31g*
  H91       1.597  1.150  0.320    1.008    Y    Y      Y    ps_6-31g*
  H104      1.597  1.150  0.320    1.008    Y    Y      Y    ps_6-31g*
 
  atom      formal  2spin      esp    mulk    frag
  P1           0       0        Y    0.000       0
  Pd2          2       0        Y    0.000       0
  Br3         -1       0        Y    0.000       0
  C73         -1       0        Y    0.000       0
  
  end of program pre
   
 Time(pre)  user:       1.134  user+sys:       1.134  wallclock:       1.418
  
  start of program onee
  
  smallest eigenvalue of S:    2.851E-04
  number of canonical orbitals.....          785
  end of program onee
   
 Time(onee)  user:      13.991  user+sys:      13.991  wallclock:      11.347
  
  start of program hfig
  
  initial wavefunction generated automatically from atomic wavefunctions
  Only one state below 0.010000
  Skip d-d repulsion considerations 
 
  Irreducible     Total no   No of occupied orbitals 
  representation  orbitals   Shell_1  Shell_2    ...
  No Symm          785        184
  ------------------------
  Orbital occupation/shell    1.000
 
  end of program hfig
   
 Time(hfig)  user:       1.649  user+sys:       1.649  wallclock:       1.731
  
  start of program probe
  
  end of program probe
   
 Time(probe)  user:       0.888  user+sys:       0.888  wallclock:       0.846
  
  start of program grid
  
   grid     grid set  grid #  grid sym
  ------    --------  ------  --------
  coarse        0        0        1
  medium        2        1        1
  fine          0        0        1
  ultrafine     4        2        1
  charge       -1        3        1
  gradient      4        2        1
  density       0        0        1
  DFT-fine    -11        4        1
  DFT-med.    -10        5        1
  DFT-grad    -12        6        1
  DFT-der2     -8        7        1
  DFT-cphf     -9        8        1
  LMP2-enrg     4        2        1
  LMP2-grad     2        1        1
  DFT-cphf2   -15        9        1
  PBF-dens      0        0        1
  plotting      0        0        1
  Rel-grad    -17        0        1
  
  number of gridpoints: 
     atom           P1         Pd2         Br3         C73         C74         C75         C76
  grid # 1         601         350         491          80          94          93         100
  grid # 2         428         322         469         334         321         301         392
  grid # 3           7         235         242          44          27          17          11
  grid # 4        8714        8714        8714        8714        8714        8714        8714
  grid # 5        1192        1192        1192        1192        1192        1192        1192
  grid # 6        9132        9132        9132        5922        5922        5922        5922
  grid # 7       23034       32968       11582       13950       13950       13950       13950
  grid # 8         722        1150         694         748         748         748         748
  grid # 9         366        2198         358         394         394         394         394
   
  number of gridpoints: 
     atom          C77         C78         F79         H80         H82         H83         H14
  grid # 1          93          94         585         113         109         114         106
  grid # 2         312         322         567         461         439         462         423
  grid # 3          17          31         363         348         165         379         126
  grid # 4        8714        8714        8714        8714        8714        8714        8714
  grid # 5        1192        1192        1192        1192        1192        1192        1192
  grid # 6        5922        5922        5922        5922        5922        5922        5922
  grid # 7       13950       13950       23190       15206       15206       15206       15206
  grid # 8         748         748         770         786         786         786         786
  grid # 9         394         394         420         420         420         420         420
   
  number of gridpoints: 
     atom           C3          C4          C5          C6          C7          C8          C9
  grid # 1          79          92          92          92          92          91          79
  grid # 2         329         278         281         281         283         277         322
  grid # 3           6           6           6           6           6           6           6
  grid # 4        8714        8714        8714        8714        8714        8714        8714
  grid # 5        1192        1192        1192        1192        1192        1192        1192
  grid # 6        5922        5922        5922        5922        5922        5922        5922
  grid # 7       13950       13950       13950       13950       13950       13950       13950
  grid # 8         748         748         748         748         748         748         748
  grid # 9         394         394         394         394         394         394         394
   
  number of gridpoints: 
     atom          C10         C11         C12         C13         C14         C15         C16
  grid # 1          90          92          92          92          90          90          98
  grid # 2         280         280         277         283         278         381         352
  grid # 3           6           6           6           6           6           8           6
  grid # 4        8714        8714        8714        8714        8714        8714        8714
  grid # 5        1192        1192        1192        1192        1192        1192        1192
  grid # 6        5922        5922        5922        5922        5922        5922        5922
  grid # 7       13950       13950       13950       13950       13950       13950       13950
  grid # 8         748         748         748         748         748         748         748
  grid # 9         394         394         394         394         394         394         394
   
  number of gridpoints: 
     atom          C17         C18         C19         C20         C21         C22         C23
  grid # 1          92          96          96          93          97          97          93
  grid # 2         341         326         326         347         350         365         327
  grid # 3          14          30          36          24           8          14          22
  grid # 4        8714        8714        8714        8714        8714        8714        8714
  grid # 5        1192        1192        1192        1192        1192        1192        1192
  grid # 6        5922        5922        5922        5922        5922        5922        5922
  grid # 7       13950       13950       13950       13950       13950       13950       13950
  grid # 8         748         748         748         748         748         748         748
  grid # 9         394         394         394         394         394         394         394
   
  number of gridpoints: 
     atom          C24         C25         C26         C27         C28         C29         C30
  grid # 1          97          92          98          91          82          81          83
  grid # 2         357         325         361         308         240         243         238
  grid # 3          17          16          10           6           6           6           6
  grid # 4        8714        8714        8714        8714        8714        8714        8714
  grid # 5        1192        1192        1192        1192        1192        1192        1192
  grid # 6        5922        5922        5922        5922        5922        5922        5922
  grid # 7       13950       13950       13950       13950       13950       13950       13950
  grid # 8         748         748         748         748         748         748         748
  grid # 9         394         394         394         394         394         394         394
   
  number of gridpoints: 
     atom          C31         C32         C33         C34         C35         O36         C37
  grid # 1          91          80          81          91          81         115          76
  grid # 2         308         246         247         304         246         432         226
  grid # 3           6           6           6           6           6          13           6
  grid # 4        8714        8714        8714        8714        8714        8714        8714
  grid # 5        1192        1192        1192        1192        1192        1192        1192
  grid # 6        5922        5922        5922        5922        5922        5922        5922
  grid # 7       13950       13950       13950       13950       13950       23382       13950
  grid # 8         748         748         748         748         748         774         748
  grid # 9         394         394         394         394         394         416         394
   
  number of gridpoints: 
     atom          O38         C39         H40         H41         H42         H43         H44
  grid # 1         118          76         100         102          97         111         110
  grid # 2         442         229         426         428         410         456         450
  grid # 3          35           6          78          98          40         298         252
  grid # 4        8714        8714        8714        8714        8714        8714        8714
  grid # 5        1192        1192        1192        1192        1192        1192        1192
  grid # 6        5922        5922        5922        5922        5922        5922        5922
  grid # 7       23382       13950       15206       15206       15206       15206       15206
  grid # 8         774         748         786         786         786         786         786
  grid # 9         416         394         420         420         420         420         420
   
  number of gridpoints: 
     atom          H45         H46         H47         H48         H49         H50         H51
  grid # 1         112         108         112         110          91          97          99
  grid # 2         458         452         456         450         383         400         415
  grid # 3         331         213         300         244          79          26          69
  grid # 4        8714        8714        8714        8714        8714        8714        8714
  grid # 5        1192        1192        1192        1192        1192        1192        1192
  grid # 6        5922        5922        5922        5922        5922        5922        5922
  grid # 7       15206       15206       15206       15206       15206       15206       15206
  grid # 8         786         786         786         786         786         786         786
  grid # 9         420         420         420         420         420         420         420
   
  number of gridpoints: 
     atom          H52         H53         H54         H55         H56         H57         H58
  grid # 1         100         100         110         112         109         112         110
  grid # 2         430         422         452         456         450         459         451
  grid # 3          79         104         243         299         228         334         251
  grid # 4        8714        8714        8714        8714        8714        8714        8714
  grid # 5        1192        1192        1192        1192        1192        1192        1192
  grid # 6        5922        5922        5922        5922        5922        5922        5922
  grid # 7       15206       15206       15206       15206       15206       15206       15206
  grid # 8         786         786         786         786         786         786         786
  grid # 9         420         420         420         420         420         420         420
   
  number of gridpoints: 
     atom          H59         H60         H61         H62         H63         H64         H65
  grid # 1         112          96          93         112         113          98         102
  grid # 2         457         407         387         446         446         405         415
  grid # 3         303          32         107         255         261          45          57
  grid # 4        8714        8714        8714        8714        8714        8714        8714
  grid # 5        1192        1192        1192        1192        1192        1192        1192
  grid # 6        5922        5922        5922        5922        5922        5922        5922
  grid # 7       15206       15206       15206       15206       15206       15206       15206
  grid # 8         786         786         786         786         786         786         786
  grid # 9         420         420         420         420         420         420         420
   
  number of gridpoints: 
     atom          H66         H67         H68         H69         H70         H71         H72
  grid # 1         105         107         107         110         104         107         101
  grid # 2         426         446         445         455         438         442         421
  grid # 3          90         249         220         322         223         229          89
  grid # 4        8714        8714        8714        8714        8714        8714        8714
  grid # 5        1192        1192        1192        1192        1192        1192        1192
  grid # 6        5922        5922        5922        5922        5922        5922        5922
  grid # 7       15206       15206       15206       15206       15206       15206       15206
  grid # 8         786         786         786         786         786         786         786
  grid # 9         420         420         420         420         420         420         420
   
  number of gridpoints: 
     atom          H73         H74         H75         H76         H77         H78         H79
  grid # 1         109         108          99         101         102         110         105
  grid # 2         447         453         409         420         429         455         441
  grid # 3         279         315          72          57         205         306         208
  grid # 4        8714        8714        8714        8714        8714        8714        8714
  grid # 5        1192        1192        1192        1192        1192        1192        1192
  grid # 6        5922        5922        5922        5922        5922        5922        5922
  grid # 7       15206       15206       15206       15206       15206       15206       15206
  grid # 8         786         786         786         786         786         786         786
  grid # 9         420         420         420         420         420         420         420
   
  number of gridpoints: 
     atom          H92         H81         H94         H95         H84         H85         H86
  grid # 1         110         106         110          98         109         107         110
  grid # 2         452         432         456         435         450         432         456
  grid # 3         295         201         324         154         293         215         324
  grid # 4        8714        8714        8714        8714        8714        8714        8714
  grid # 5        1192        1192        1192        1192        1192        1192        1192
  grid # 6        5922        5922        5922        5922        5922        5922        5922
  grid # 7       15206       15206       15206       15206       15206       15206       15206
  grid # 8         786         786         786         786         786         786         786
  grid # 9         420         420         420         420         420         420         420
   
  number of gridpoints: 
     atom          H87         H88         H89         H90         H91        H104       total
  grid # 1         109         111         112         112         111         111       12000
  grid # 2         459         451         451         463         445         449       40094
  grid # 3         329         304         327         371         276         304       13610
  grid # 4        8714        8714        8714        8714        8714        8714      906256
  grid # 5        1192        1192        1192        1192        1192        1192      123968
  grid # 6        5922        5922        5922        5922        5922        5922      625518
  grid # 7       15206       15206       15206       15206       15206       15206     1576230
  grid # 8         786         786         786         786         786         786       80354
  grid # 9         420         420         420         420         420         420       44268
   
  end of program grid
   
 Time(grid)  user:     776.855  user+sys:     776.855  wallclock:     392.620
  
  start of program rwr
  
  end of program rwr
   
 Time(rwr)  user:      27.213  user+sys:      27.213  wallclock:      34.090
  
  start of program scf
  
 number of electrons..........        368
 number of alpha electrons....        184
 number of beta electrons.....        184
 number of orbitals, total....        785
 number of doubly-occ'd orbs..        184
 number of open shell orbs....          0
 number of occupied orbitals..        184
 number of virtual orbitals...        601
 number of hamiltonians.......          1
 number of shells.............          1
 SCF type: DFT=Becke_3_Parameter/HF+Slater+Becke88+PW91+PW-GGAIIC (B3PW91-D3)
 Energy computed using pseudospectral method.
 Convergence Criterion:
    Energy (econv):       1.00E-05
    RMS density (dconv):  5.00E-06
  
       i  u  d  i  g                   
       t  p  i  c  r                                 RMS    maximum
       e  d  i  u  i                       energy  density   DIIS  
       r  t  s  t  d       total energy    change  change    error 
  
etot    1  N  N  5  M   -2321.66432498461           1.8E-03  2.4E-01
etot    2  Y  Y  6  M   -2325.71358214425  4.0E+00  2.8E-03  1.4E-01
etot    3  Y  Y  6  M   -2326.90793422591  1.2E+00  1.3E-03  6.3E-02
etot    4  N  Y  2  U   -2327.33240754683  4.2E-01  8.2E-04  5.1E-02
etot    5  Y  Y  6  M   -2327.46593765742  1.3E-01  4.4E-04  3.1E-02
etot    6  N  Y  2  U   -2327.47853498493  1.3E-02  5.5E-04  1.8E-02
etot    7  Y  Y  6  M   -2327.47961449569  1.1E-03  1.4E-04  4.6E-03
etot    8  Y  Y  6  M   -2327.48849408998  8.9E-03  4.8E-05  1.9E-03
etot    9  N  Y  2  U   -2327.49020394254  1.7E-03  1.5E-05  2.6E-04
etot   10  N  Y  2  U   -2327.49021885228  1.5E-05  7.3E-06  9.6E-05
etot   11  N  Y  2  U   -2327.49022210493  3.3E-06  2.7E-06  4.6E-05
etot   12  N  N  2  U   -2327.49022264614  5.4E-07  0.0E+00  0.0E+00
 
  Computing the dispersion energy correction and its gradients...
  
  
 Energy components, in hartrees:
   (A)  Nuclear repulsion............    7515.03057924372
   (E)  Total one-electron terms.....  -18203.13116811718
   (F)    Electron-nuclear...........  -20427.96801742529
   (H)    Kinetic....................    2224.83684930811
   (I)  Total two-electron terms.....    8360.61036622732
   (J)    Coulomb....................    8670.29142910967
   (K)    Exchange+Correlation.......    -309.68106288236
   (L)  Electronic energy............   -9842.52080188986  (E+I)
   (N0) D3 correction................      -0.20332310386
   (N)  Total energy.................   -2327.69354575000  (A+L+N0)
   (O)  Gas phase energy.............   -2327.69354575000
  
 SCFE: SCF energy: DFT(b3pw91-d3)     -2327.69354575000 hartrees   iterations:  12
  
 
 HOMO energy:    -0.17985
 LUMO energy:    -0.05449
 
  Orbital energies (hartrees): 
   -77.08232   -24.67244   -19.19288   -19.17779   -10.26283   -10.25415
   -10.25321   -10.24177   -10.23994   -10.20983   -10.20858   -10.19914
   -10.19778   -10.18606   -10.18329   -10.17820   -10.17819   -10.17806
   -10.17555   -10.17475   -10.17244   -10.17233   -10.17216   -10.16984
   -10.16961   -10.16905   -10.16721   -10.16576   -10.16530   -10.16514
   -10.16498   -10.16461   -10.16435   -10.16266   -10.15774   -10.15439
   -10.15306   -10.15105   -10.14869   -10.14845   -10.14834   -10.14515
   -10.14469   -10.14117   -10.14097    -6.58520    -4.74310    -4.74210
    -4.74054    -3.33761    -2.07207    -2.06724    -2.03598    -1.20329
    -1.10037    -1.08534    -0.88939    -0.85873    -0.85576    -0.84617
    -0.83550    -0.81088    -0.80819    -0.79878    -0.78835    -0.76840
    -0.76017    -0.75366    -0.74881    -0.74502    -0.74352    -0.73601
    -0.73256    -0.71880    -0.71031    -0.69789    -0.67649    -0.67368
    -0.67141    -0.66642    -0.66161    -0.63653    -0.62113    -0.61976
    -0.61491    -0.60987    -0.60491    -0.60008    -0.59385    -0.59248
    -0.58587    -0.57053    -0.56458    -0.55209    -0.54969    -0.53582
    -0.53375    -0.53193    -0.53103    -0.52646    -0.50311    -0.49772
    -0.49400    -0.49135    -0.47915    -0.47421    -0.47085    -0.46849
    -0.46176    -0.45806    -0.45190    -0.44968    -0.44783    -0.44297
    -0.44204    -0.44056    -0.43936    -0.43842    -0.43703    -0.43215
    -0.43179    -0.42939    -0.42778    -0.42593    -0.41955    -0.41774
    -0.41303    -0.40986    -0.40589    -0.40064    -0.39425    -0.38991
    -0.38446    -0.38232    -0.38101    -0.37945    -0.37595    -0.37374
    -0.37131    -0.37012    -0.36909    -0.36588    -0.36359    -0.35935
    -0.35880    -0.35474    -0.35398    -0.34953    -0.34647    -0.34552
    -0.34310    -0.33820    -0.33779    -0.33467    -0.33390    -0.33017
    -0.32691    -0.32544    -0.32460    -0.32316    -0.32292    -0.32172
    -0.31456    -0.31207    -0.30480    -0.30371    -0.30248    -0.29893
    -0.29555    -0.29415    -0.29231    -0.27651    -0.27417    -0.26547
    -0.26196    -0.25338    -0.23291    -0.22882    -0.22827    -0.22288
    -0.21849    -0.20187    -0.19982    -0.17985    -0.05449    -0.04755
    -0.01799    -0.00306     0.00164     0.00701     0.01196     0.03636
     0.04987     0.05937
 
  end of program scf
   
 Time(scf)  user:     791.981  user+sys:     791.981  wallclock:     416.229
  
  start of program der1a
  
  end of program der1a
   
 Time(der1a)  user:      42.012  user+sys:      42.012  wallclock:      21.820
  
  start of program rwr
  
  end of program rwr
   
 Time(rwr)  user:      32.131  user+sys:      32.131  wallclock:      41.508
  
  start of program der1b
  
   
  forces (hartrees/bohr) : total     
   
 atom  label           x              y              z
 ---- --------   -------------  -------------  -------------
    1 P1          3.023430E-02  -9.032184E-03   4.272754E-02
    2 Pd2        -3.425845E-03  -1.177613E-02   1.300238E-03
    3 Br3         2.944367E-02   5.712825E-02  -1.517696E-02
    4 C73         2.432169E-03   2.598305E-03  -2.431834E-04
    5 C74         2.380307E-03   1.722991E-03   8.495653E-03
    6 C75        -9.317362E-03   2.342100E-03   2.369758E-02
    7 C76        -2.533638E-03   4.984668E-03   1.004428E-02
    8 C77         7.080160E-03  -1.941124E-03   1.026803E-02
    9 C78        -1.283136E-03   1.284326E-03  -7.489684E-05
   10 F79        -3.396147E-03  -4.993737E-03  -2.177107E-03
   11 H80        -5.993009E-04  -2.192380E-04  -8.576517E-04
   12 H82        -4.266667E-04   2.593064E-04   6.249358E-03
   13 H83         1.616853E-04  -1.020637E-03   4.209885E-04
   14 H14         3.827644E-03  -3.483979E-03   8.360818E-03
   15 C3          1.192035E-02   1.921507E-04  -2.218657E-02
   16 C4         -7.841812E-03  -1.271272E-02   2.626673E-03
   17 C5          4.637415E-03  -3.837165E-03  -1.282553E-03
   18 C6          9.669606E-03   6.496796E-04  -4.036327E-03
   19 C7          1.763343E-03   2.205565E-03  -2.701795E-03
   20 C8          7.265531E-03   9.845393E-03  -5.969835E-03
   21 C9         -1.901952E-02   3.549698E-02  -3.188167E-02
   22 C10        -1.038155E-02  -9.796219E-03   4.627371E-03
   23 C11        -6.366428E-03   1.920291E-03   2.257954E-04
   24 C12        -5.203261E-03   8.691103E-03  -3.586569E-03
   25 C13        -7.761263E-04   4.484927E-03  -8.148007E-04
   26 C14        -1.689161E-04   1.258543E-02  -2.858345E-04
   27 C15        -2.848872E-03   5.047863E-04  -1.149383E-02
   28 C16        -4.098650E-03  -2.608075E-03  -4.100934E-02
   29 C17         5.243466E-03  -1.512421E-02  -3.103842E-02
   30 C18        -2.422201E-03  -1.578521E-03  -4.935183E-03
   31 C19        -2.576200E-03  -1.860678E-03  -6.514033E-03
   32 C20        -1.637283E-02  -2.372723E-02  -1.859501E-02
   33 C21         5.801580E-03   1.522685E-02   5.413139E-02
   34 C22        -2.021876E-03   8.572804E-03   1.926503E-02
   35 C23        -4.127183E-03  -1.270387E-02  -2.126830E-03
   36 C24        -4.999251E-03  -1.288112E-02  -1.557490E-02
   37 C25        -4.756600E-03  -1.522483E-02  -6.587705E-04
   38 C26         6.770357E-03  -3.567880E-03   1.588362E-02
   39 C27         2.146105E-03  -9.387275E-03  -9.260327E-03
   40 C28        -4.128851E-03  -1.431537E-02  -6.065357E-04
   41 C29         7.753045E-03   4.887190E-03   4.204110E-03
   42 C30        -7.694062E-03  -5.491777E-03  -1.423364E-02
   43 C31        -1.137677E-02   4.182312E-03   4.412513E-04
   44 C32        -8.093055E-03   1.198013E-02   4.354087E-03
   45 C33        -7.203161E-03  -1.345510E-04   7.369488E-03
   46 C34        -5.600289E-03  -1.101908E-02   1.827449E-02
   47 C35         4.665191E-03  -6.682083E-03   6.167807E-03
   48 O36         1.301388E-02   6.880197E-03   1.776462E-02
   49 C37        -5.545366E-03  -8.411396E-03  -1.483045E-03
   50 O38         1.795226E-02   4.237320E-03   2.247414E-02
   51 C39         2.966843E-03   3.645667E-03  -8.964473E-03
   52 H40         1.604213E-03  -3.193013E-03   7.611961E-03
   53 H41         2.945293E-03   1.059444E-02   7.755573E-04
   54 H42        -4.520834E-03   7.687208E-04  -1.173533E-02
   55 H43        -8.088071E-03   7.746782E-03  -3.470911E-03
   56 H44         2.129024E-03   1.440665E-03   9.340299E-03
   57 H45        -8.108374E-03  -1.510908E-04   7.785624E-03
   58 H46        -2.936041E-03  -9.747632E-04  -9.442945E-03
   59 H47        -7.568298E-03  -9.019682E-03  -1.823290E-03
   60 H48         3.137346E-03   2.405432E-04   7.987135E-03
   61 H49         3.079121E-02  -2.514551E-02   6.569070E-03
   62 H50        -4.270873E-03  -1.103818E-03  -3.718069E-02
   63 H51        -1.284443E-03   3.377223E-03   1.183716E-02
   64 H52        -4.495725E-04  -1.897796E-03  -8.851807E-03
   65 H53         5.688144E-03   8.983794E-03   4.861972E-03
   66 H54         3.214979E-04   1.399185E-03   9.527332E-03
   67 H55         1.090350E-02  -2.099759E-03  -4.316062E-03
   68 H56         2.342290E-04  -1.797069E-03  -9.810357E-03
   69 H57         5.048151E-03  -7.727584E-03   6.573782E-03
   70 H58        -6.800698E-04   1.455695E-03   8.937389E-03
   71 H59        -3.080466E-03  -1.129275E-02  -3.007338E-03
   72 H60         7.433594E-04  -8.353606E-04  -2.608989E-02
   73 H61        -3.455610E-02   1.142781E-02   7.635255E-03
   74 H62         5.246546E-03   5.775413E-03   7.402146E-03
   75 H63         2.736955E-03   2.036246E-03   9.896799E-03
   76 H64         1.469197E-02  -6.242597E-03  -1.234830E-02
   77 H65        -5.027080E-03   5.917213E-03  -1.162755E-02
   78 H66        -3.278040E-04   6.874945E-03   8.325605E-03
   79 H67        -1.886098E-04   4.816482E-03  -9.697546E-03
   80 H68         9.264809E-03   3.762780E-03   5.327517E-03
   81 H69        -6.460933E-03   6.353261E-03   4.808632E-03
   82 H70        -5.313129E-03   4.014898E-03  -8.818579E-03
   83 H71        -9.108130E-03   4.559742E-03   3.511731E-03
   84 H72        -3.173077E-03  -1.321646E-02   1.169530E-03
   85 H73         7.703268E-03   6.878630E-03  -2.873435E-03
   86 H74         7.122191E-03  -3.220873E-03   6.843903E-03
   87 H75        -1.359190E-02   1.566918E-02   1.262524E-02
   88 H76         3.405474E-03  -1.355970E-02   2.967889E-03
   89 H77         1.097824E-03   6.425720E-03  -1.018597E-02
   90 H78         8.504608E-03  -7.462359E-03   9.692237E-04
   91 H79        -5.947817E-03  -3.745915E-03  -6.380903E-03
   92 H92         5.008458E-03   8.077092E-03   1.196779E-03
   93 H81         5.944758E-03  -9.530015E-03   8.767199E-03
   94 H94         7.918362E-04   9.127400E-05  -1.134759E-02
   95 H95        -1.057270E-02  -1.997466E-02  -2.070822E-03
   96 H84         3.900079E-03   8.732082E-03   1.113212E-03
   97 H85        -1.077591E-02  -9.986186E-04   9.246437E-03
   98 H86        -1.144114E-03   1.167836E-03  -1.124158E-02
   99 H87        -7.932755E-03  -1.000706E-02   6.343722E-03
  100 H88         1.080012E-02  -4.347164E-03  -2.372513E-03
  101 H89        -7.195217E-03   9.430354E-03  -2.330325E-03
  102 H90         4.760537E-03   1.144316E-02  -7.816251E-03
  103 H91         7.313734E-03  -8.968841E-03   1.103202E-03
  104 H104       -1.093502E-02   3.090121E-03   1.896225E-03
 -------------   -------------  -------------  -------------
     total        1.125780E-03  -9.835241E-04  -2.782028E-04
   
  end of program der1b
   
 Time(der1b)  user:     269.311  user+sys:     269.311  wallclock:     139.974
  
  start of program geopt
  
 ----------------------------------------------------------------------------
  Geometry optimization step  1
  Total energy:     -2327.69354575000 hartrees
 ----------------------------------------------------------------------------
  
  
  Level shifts adjusted to satisfy step-size constraints
   Step size:    0.3004140
   Cos(theta):   0.8113273
   Final level shift:  -8.7002822E-01
  
  gradient maximum:        4.3120E-01 .  (  2.2500E-03 )
  gradient rms:            5.7406E-02 .  (  1.5000E-03 )
  displacement maximum:    7.1372E-02 .  (  9.0000E-03 )
  displacement rms:        1.0874E-02 .  (  6.0000E-03 )
  
  predicted energy change:  -1.3494E-01
  step size:     0.20314
  trust radius:  0.30000
  
  molecular structure not yet converged...
  
  center of mass moved by:
     x:     1.5583E-01     y:     2.0561E-01     z:     4.2147E-02
  
  new geometry: 
                                   angstroms
  atom               x                 y                 z
  P1            0.0009127631      0.0294945781      0.0438898744 
  Pd2           0.1323064700      0.1811520423      2.3232023223 
  Br3           0.0195308758      0.2127263826      4.8724662205 
  C73           2.8540936873      4.0674461387      2.5049185940 
  C74           3.4685098560      2.8368152112      2.3327058565 
  C75           2.6715527315      1.6957828267      2.2169973402 
  C76           1.2754469571      1.7871440002      2.2799120209 
  C77           0.6867182885      3.0500641225      2.4129048350 
  C78           1.4736495993      4.1979578213      2.5319256542 
  F79           3.6221997914      5.1719763698      2.6514358242 
  H80           4.5534684171      2.7762628348      2.3140147325 
  H82          -0.3944899000      3.1462014492      2.4326510204 
  H83           1.0294733329      5.1839619691      2.6428060665 
  H14           3.1343872140      0.7273945587      2.0881733667 
  C3            1.6866466103     -0.0453047905     -0.7527729989 
  C4            2.6011890848     -1.1953031217     -0.2856282934 
  C5            3.8402720093     -1.3236913510     -1.1834859163 
  C6            4.6518365789     -0.0233784850     -1.1807491994 
  C7            3.7681439805      1.1631330078     -1.5823213626 
  C8            2.5248329809      1.2492738439     -0.6861774680 
  C9           -0.9027846191      1.3943660625     -0.6875333216 
  C10          -2.3506906629      1.3780334792     -0.1610661753 
  C11          -3.2435770724      2.4452395907     -0.8079094247 
  C12          -2.6539140276      3.8419033445     -0.6030501709 
  C13          -1.2329741498      3.8895588499     -1.1696367872 
  C14          -0.3408938781      2.8199472855     -0.5274708992 
  C15          -0.9297051232     -1.4030697692     -0.5860915140 
  C16          -1.6486417342     -2.3542421041      0.2060732245 
  C17          -2.4472932037     -3.3141189811     -0.4628443304 
  C18          -2.5346712925     -3.3003507325     -1.8596681167 
  C19          -1.8532300553     -2.3557918870     -2.6150247170 
  C20          -1.0489718925     -1.3931261524     -1.9991611822 
  C21          -1.6756281342     -2.4799677362      1.6422978292 
  C22          -2.8072138229     -2.0353401325      2.4009977181 
  C23          -2.8108541811     -2.2147839083      3.7951179395 
  C24          -1.7641043203     -2.8155641537      4.5011683312 
  C25          -0.6931489910     -3.2738668770      3.7324733120 
  C26          -0.6193991441     -3.1243444222      2.3418568584 
  C27           0.5238940080     -3.8619142507      1.6639418018 
  C28           0.1877033159     -5.3660190882      1.6467788641 
  C29           1.8962646764     -3.6511662369      2.3290359907 
  C30          -4.9940325379     -2.1760783311      1.0298751036 
  C31          -4.0135162124     -1.2864542541      1.8200176830 
  C32          -4.8345266676     -0.5688755849      2.9121633998 
  C33          -3.2639181053     -3.0441994959      6.5269971536 
  C34          -1.8180773922     -3.0062544193      6.0079527056 
  C35          -1.0565580814     -4.2653191250      6.4512296669 
  O36          -0.3956823091     -0.4671266749     -2.7522719802 
  C37          -0.3652490355     -0.4663628797     -4.1636137719 
  O38          -3.0490004775     -4.3022751694      0.2563966717 
  C39          -3.6810587698     -5.4212180933     -0.3303111938 
  H40           1.4621525224     -0.1902254116     -1.8309556360 
  H41           2.0650205319     -2.1668162635     -0.2859072396 
  H42           2.9287686078     -1.0213905230      0.7594927861 
  H43           4.4761120861     -2.1682764875     -0.8346493738 
  H44           3.5236594938     -1.5622926725     -2.2237323313 
[...]
    H47      X    -0.00008   0.00006  -0.00000  -0.00004   0.00006   0.00011
    H47      Y    -0.00023   0.00009   0.00004   0.00005   0.00007   0.00016
    H47      Z     0.00002   0.00001   0.00002  -0.00001   0.00000   0.00004
    H48      X    -0.00010  -0.00001   0.00002  -0.00030  -0.00002   0.00001
    H48      Y    -0.00002  -0.00001   0.00003  -0.00006  -0.00002  -0.00001
    H48      Z    -0.00041  -0.00005   0.00026  -0.00135  -0.00015  -0.00002
    H49      X    -0.00028  -0.00009   0.00011  -0.00169  -0.00006  -0.00039
    H49      Y     0.00022   0.00012  -0.00014   0.00216   0.00007   0.00044
    H49      Z    -0.00011  -0.00007   0.00006  -0.00113  -0.00004  -0.00041
    H50      X    -0.00019   0.00000   0.00003  -0.00142  -0.00000   0.00048
    H50      Y    -0.00014  -0.00001   0.00004  -0.00285  -0.00000   0.00110
    H50      Z    -0.00114  -0.00000   0.00007  -0.01123   0.00000   0.00465
    H51      X     0.00020  -0.00002  -0.00026   0.00004   0.00003  -0.00061
    H51      Y     0.00004   0.00000  -0.00018  -0.00004  -0.00002  -0.00008
    H51      Z    -0.00057   0.00002   0.00053   0.00011  -0.00010   0.00169
    H52      X     0.00007   0.00001  -0.00019  -0.00007   0.00003  -0.00012
    H52      Y     0.00003  -0.00007  -0.00000  -0.00002  -0.00000  -0.00009
    H52      Z    -0.00010  -0.00002   0.00042   0.00013  -0.00007   0.00007
    H53      X    -0.00004   0.00003   0.00009   0.00003   0.00000   0.00021
    H53      Y    -0.00011   0.00022   0.00048   0.00009  -0.00038   0.00056
    H53      Z    -0.00008   0.00021   0.00015   0.00006  -0.00013   0.00040
    H54      X     0.00001  -0.00004  -0.00018  -0.00004   0.00009  -0.00001
    H54      Y     0.00000  -0.00000  -0.00008  -0.00001   0.00004  -0.00000
    H54      Z    -0.00003   0.00009   0.00037   0.00008  -0.00017   0.00003
    H55      X    -0.00003  -0.00021   0.00012   0.00003  -0.00031   0.00024
    H55      Y    -0.00000  -0.00003   0.00000   0.00002  -0.00004   0.00009
    H55      Z    -0.00000  -0.00005   0.00001   0.00000  -0.00004   0.00005
    H56      X     0.00004  -0.00011  -0.00005  -0.00004   0.00002   0.00005
    H56      Y    -0.00000  -0.00002   0.00001  -0.00000  -0.00001   0.00003
    H56      Z    -0.00003   0.00019   0.00011   0.00006  -0.00003  -0.00014
    H57      X    -0.00010  -0.00003   0.00003   0.00006  -0.00007   0.00021
    H57      Y     0.00012   0.00005  -0.00003  -0.00009   0.00013  -0.00020
    H57      Z    -0.00009  -0.00002   0.00002   0.00006  -0.00008   0.00017
    H58      X     0.00018  -0.00004  -0.00007  -0.00012   0.00004  -0.00048
    H58      Y     0.00010  -0.00002  -0.00003  -0.00006   0.00001  -0.00022
    H58      Z    -0.00042   0.00007   0.00012   0.00024  -0.00008   0.00094
    H59      X     0.00005   0.00001   0.00003  -0.00000  -0.00001  -0.00015
    H59      Y     0.00062   0.00010   0.00001   0.00015   0.00007   0.00036
    H59      Z     0.00046   0.00005   0.00004   0.00007   0.00003   0.00001
    H60      X     0.00222  -0.00002  -0.00002  -0.00049   0.00005  -0.00593
    H60      Y     0.00058  -0.00001   0.00002  -0.00012   0.00001  -0.00139
    H60      Z    -0.00447   0.00009   0.00005   0.00076  -0.00008   0.01321
    H61      X    -0.00217  -0.00021  -0.00004   0.00123  -0.00004   0.01046
    H61      Y    -0.00066  -0.00005   0.00001   0.00027  -0.00002   0.00224
    H61      Z     0.00023  -0.00001  -0.00001   0.00001   0.00000  -0.00014
    H62      X     0.00003   0.00425  -0.27510  -0.00051  -0.31130  -0.00144
    H62      Y     0.00005   0.00804  -0.52089  -0.00097  -0.58927  -0.00274
    H62      Z     0.00002   0.00346  -0.22899  -0.00042  -0.25416  -0.00119
    H63      X     0.00001  -0.00078   0.07167  -0.00002  -0.06133  -0.00027
    H63      Y     0.00001  -0.00126   0.11559  -0.00004  -0.09828  -0.00045
    H63      Z     0.00008  -0.00762   0.70196  -0.00031  -0.61918  -0.00278
    H64      X     0.00024  -0.76041  -0.00978   0.00330  -0.00173  -0.00210
    H64      Y    -0.00010   0.33031   0.00421  -0.00142   0.00073   0.00089
    H64      Z    -0.00015   0.47056   0.00607  -0.00204   0.00109   0.00130
    H65      X     0.00025   0.00406   0.00069  -0.00091   0.00058   0.00043
    H65      Y    -0.00019  -0.00257  -0.00054   0.00071  -0.00044  -0.00032
    H65      Z     0.00017   0.00154   0.00051  -0.00062   0.00044   0.00030
    H66      X    -0.00001   0.00007  -0.00005   0.00006  -0.00005   0.00002
    H66      Y     0.00012   0.00036  -0.00050  -0.00046  -0.00013   0.00007
    H66      Z    -0.00024  -0.00088   0.00094   0.00094   0.00021  -0.00013
    H67      X     0.00000   0.00001  -0.00002  -0.00001  -0.00000  -0.00000
    H67      Y     0.00001   0.00035  -0.00001  -0.00006   0.00002  -0.00001
    H67      Z     0.00001  -0.00052  -0.00004   0.00001  -0.00007   0.00003
    H68      X    -0.00003  -0.00019  -0.00034   0.00016  -0.00010  -0.00009
    H68      Y    -0.00002  -0.00005  -0.00010   0.00013   0.00006  -0.00003
    H68      Z    -0.00002  -0.00012  -0.00023   0.00009  -0.00002  -0.00005
    H69      X     0.00010   0.00034  -0.00013  -0.00049   0.00036   0.00010
    H69      Y    -0.00003  -0.00010   0.00002   0.00021  -0.00015  -0.00005
    H69      Z    -0.00005  -0.00023   0.00006   0.00029  -0.00019  -0.00006
    H70      X    -0.00007  -0.00016   0.00003   0.00021   0.00002  -0.00000
    H70      Y     0.00025   0.00052  -0.00010   0.00008  -0.00006  -0.00008
    H70      Z    -0.00070  -0.00075   0.00019   0.00129   0.00013   0.00007
    H71      X    -0.00093   0.00047   0.00001   0.00169   0.00021   0.00004
    H71      Y     0.00016  -0.00009   0.00001  -0.00017  -0.00004   0.00001
    H71      Z     0.00071  -0.00039  -0.00001  -0.00131  -0.00013  -0.00000
    H72      X     0.00036   0.00000  -0.00002  -0.00151  -0.00003   0.00007
    H72      Y     0.00492   0.00019  -0.00024  -0.01361  -0.00022   0.00012
    H72      Z     0.00101   0.00008  -0.00007  -0.00232  -0.00007  -0.00001
    H73      X    -0.00000  -0.00817  -0.00010   0.00002   0.00000  -0.00001
    H73      Y    -0.00000  -0.00341  -0.00007   0.00001  -0.00001  -0.00002
    H73      Z     0.00001   0.01925   0.00019  -0.00008  -0.00004   0.00006
    H74      X    -0.00005   0.00144   0.00007   0.00015  -0.00030  -0.00022
    H74      Y     0.00003  -0.00175  -0.00008  -0.00008   0.00020   0.00011
    H74      Z    -0.00004   0.00159   0.00007   0.00009  -0.00019  -0.00014
    H75      X    -0.00000  -0.00116   0.00003  -0.00001   0.00007   0.00001
    H75      Y     0.00001   0.00650  -0.00027  -0.00000  -0.00009   0.00003
    H75      Z     0.00001   0.00303  -0.00011  -0.00001   0.00000   0.00002
    H76      X     0.00000  -0.00302  -0.00034  -0.00002  -0.00004   0.00005
    H76      Y     0.00001   0.00046  -0.00017  -0.00004  -0.00007   0.00002
    H76      Z    -0.00002   0.00294   0.00098   0.00015   0.00013  -0.00016
    H77      X     0.00002  -0.00968  -0.00018   0.00002  -0.00004  -0.00006
    H77      Y     0.00000  -0.00336  -0.00005   0.00001  -0.00001  -0.00003
    H77      Z    -0.00006   0.02922   0.00057  -0.00005   0.00015   0.00020
    H78      X    -0.00001   0.00285   0.00006   0.00006  -0.00018  -0.00031
    H78      Y     0.00001  -0.00144  -0.00002  -0.00007   0.00015   0.00024
    H78      Z    -0.00001   0.00229   0.00004   0.00003  -0.00012  -0.00020
    H79      X     0.00025  -0.00591  -0.00021  -0.00013  -0.00013  -0.00065
    H79      Y     0.00016  -0.00370  -0.00015  -0.00009  -0.00011  -0.00041
    H79      Z     0.00001  -0.00061  -0.00002  -0.00002  -0.00001  -0.00000
    H92      X     0.00001  -0.02271  -0.00030   0.00002  -0.00010  -0.00004
    H92      Y     0.00000  -0.00241  -0.00003  -0.00001  -0.00001   0.00000
    H92      Z     0.00000  -0.00861  -0.00012   0.00003  -0.00004  -0.00003
    H81      X    -0.00000   0.00086  -0.00001   0.00002  -0.00001  -0.00001
    H81      Y    -0.00001   0.00083  -0.00005   0.00006  -0.00008  -0.00002
    H81      Z    -0.00001   0.00042   0.00001  -0.00000  -0.00001  -0.00000
    H94      X     0.00000  -0.00127  -0.00002  -0.00000   0.00000   0.00000
    H94      Y    -0.00002   0.00305   0.00003   0.00002  -0.00003  -0.00002
    H94      Z     0.00008  -0.00885  -0.00007  -0.00019   0.00015   0.00015
    H95      X     0.00002   0.00046   0.00000  -0.00018   0.00001   0.00007
    H95      Y     0.00001  -0.00053  -0.00002  -0.00001   0.00000  -0.00001
    H95      Z     0.00002   0.00177   0.00003  -0.00012   0.00003   0.00007
    H84      X     0.00001  -0.00319  -0.00018  -0.00005  -0.00009  -0.00002
    H84      Y     0.00000  -0.00081  -0.00002  -0.00001  -0.00001   0.00000
    H84      Z     0.00000  -0.00136  -0.00006  -0.00001  -0.00004  -0.00002
    H85      X    -0.00001  -0.00191   0.00005   0.00002   0.00002  -0.00005
    H85      Y     0.00001   0.00195  -0.00003  -0.00002  -0.00001   0.00007
    H85      Z     0.00000   0.00128  -0.00002   0.00000  -0.00002   0.00003
    H86      X    -0.00000  -0.00013  -0.00001   0.00001  -0.00001  -0.00001
    H86      Y    -0.00002  -0.00076  -0.00001   0.00009  -0.00006  -0.00008
    H86      Z     0.00008   0.00157  -0.00003  -0.00027   0.00016   0.00022
    H87      X     0.00002   0.00001   0.00884  -0.00007  -0.00541   0.00005
    H87      Y     0.00006   0.00002   0.01937  -0.00019  -0.01177   0.00008
    H87      Z    -0.00003  -0.00004  -0.00690   0.00009   0.00379  -0.00005
    H88      X     0.00001  -0.00025   0.01438  -0.00017  -0.01114  -0.00013
    H88      Y    -0.00000  -0.00004   0.00165  -0.00001  -0.00164  -0.00003
    H88      Z     0.00000  -0.00006   0.00248  -0.00004  -0.00190  -0.00004
    H89      X    -0.00000   0.00006  -0.00697  -0.00004   0.00502  -0.00002
    H89      Y    -0.00000  -0.00013   0.01154   0.00010  -0.00904   0.00003
    H89      Z    -0.00000  -0.00004   0.00361   0.00004  -0.00270   0.00001
    H90      X    -0.00000  -0.00025   0.00422   0.00001   0.00305   0.00001
    H90      Y    -0.00001  -0.00058   0.00746   0.00001   0.00537   0.00001
    H90      Z     0.00002   0.00098  -0.01617  -0.00004  -0.01259  -0.00003
    H91      X    -0.00003  -0.00028  -0.00942   0.00005  -0.00918  -0.00012
    H91      Y     0.00001   0.00002   0.00334  -0.00000   0.00330   0.00003
    H91      Z    -0.00002  -0.00026  -0.00701   0.00003  -0.00732  -0.00009
    H104     X     0.00000  -0.00032   0.00745  -0.00002   0.00736   0.00005
    H104     Y    -0.00000   0.00018  -0.00528   0.00003  -0.00517  -0.00005
    H104     Z    -0.00000   0.00020  -0.00587   0.00002  -0.00624  -0.00005
  
  Number of imaginary frequencies:   0
   
  Writing vibrational animation data to ox_add_Ar_trans_L1_PL344.vib
  Writing IR vibrational spectrum data to ox_add_Ar_trans_L1_PL344_vib.spm
  rotational symmetry number:  1

  rotational temperatures (K):      0.003273      0.002814      0.002243
   
  The Quasi-Harmonic approximation will be applied to compute
  vibrational constributions to thermodynamic properties.
  Frequencies will be adjusted to a minimum value of  100.00 cm^-1.

  vibrational temperatures:
       mode:      1        2        3        4        5        6
  temp. (K):   143.88   143.88   143.88   143.88   143.88   143.88
   
       mode:      7        8        9       10       11       12
  temp. (K):   143.88   143.88   143.88   143.88   143.88   143.88
   
       mode:     13       14       15       16       17       18
  temp. (K):   143.88   143.88   143.88   143.88   143.88   143.88
   
       mode:     19       20       21       22       23       24
  temp. (K):   143.88   150.69   155.95   160.21   169.73   198.77
   
       mode:     25       26       27       28       29       30
  temp. (K):   201.77   205.37   210.35   222.36   225.25   230.84
   
       mode:     31       32       33       34       35       36
  temp. (K):   249.28   266.91   268.80   280.45   289.50   296.37
   
       mode:     37       38       39       40       41       42
  temp. (K):   320.27   329.44   342.67   346.46   357.89   359.47
   
       mode:     43       44       45       46       47       48
  temp. (K):   369.71   379.01   383.38   384.29   388.02   395.28
   
       mode:     49       50       51       52       53       54
  temp. (K):   409.89   414.20   425.87   439.13   448.82   454.94
   
       mode:     55       56       57       58       59       60
  temp. (K):   467.16   473.59   480.30   489.99   502.03   512.76
   
       mode:     61       62       63       64       65       66
  temp. (K):   547.75   552.39   571.16   587.72   589.29   590.91
   
       mode:     67       68       69       70       71       72
  temp. (K):   607.76   614.89   632.16   647.24   647.94   654.09
   
       mode:     73       74       75       76       77       78
  temp. (K):   668.85   678.67   688.89   709.07   728.85   752.17
   
       mode:     79       80       81       82       83       84
  temp. (K):   759.82   771.07   799.53   813.46   835.84   850.24
   
       mode:     85       86       87       88       89       90
  temp. (K):   891.08   912.90   914.80   915.40   930.45   961.35
   
       mode:     91       92       93       94       95       96
  temp. (K):   971.60  1015.61  1044.25  1064.17  1089.08  1119.74
   
       mode:     97       98       99      100      101      102
  temp. (K):  1138.29  1166.65  1169.11  1180.70  1183.82  1190.78
   
       mode:    103      104      105      106      107      108
  temp. (K):  1199.69  1206.13  1213.21  1214.23  1216.54  1244.68
   
       mode:    109      110      111      112      113      114
  temp. (K):  1259.84  1266.83  1300.36  1313.25  1316.07  1318.97
   
       mode:    115      116      117      118      119      120
  temp. (K):  1321.97  1325.81  1331.76  1332.21  1347.61  1358.39
   
       mode:    121      122      123      124      125      126
  temp. (K):  1364.87  1369.13  1369.57  1371.08  1375.23  1393.99
   
       mode:    127      128      129      130      131      132
  temp. (K):  1394.98  1406.98  1414.72  1417.40  1422.60  1476.93
   
       mode:    133      134      135      136      137      138
  temp. (K):  1477.60  1486.05  1516.42  1528.50  1531.46  1551.55
   
       mode:    139      140      141      142      143      144
  temp. (K):  1553.12  1563.28  1579.64  1581.34  1597.54  1602.25
   
       mode:    145      146      147      148      149      150
  temp. (K):  1607.51  1610.21  1617.69  1622.70  1631.24  1640.59
   
       mode:    151      152      153      154      155      156
  temp. (K):  1645.16  1648.20  1652.10  1658.30  1665.21  1677.10
   
       mode:    157      158      159      160      161      162
  temp. (K):  1700.43  1703.45  1717.17  1721.17  1721.59  1741.79
   
       mode:    163      164      165      166      167      168
  temp. (K):  1748.40  1754.08  1755.20  1764.05  1772.66  1780.58
   
       mode:    169      170      171      172      173      174
  temp. (K):  1800.77  1812.76  1843.00  1864.92  1869.26  1873.63
   
       mode:    175      176      177      178      179      180
  temp. (K):  1882.53  1885.46  1889.26  1893.17  1896.71  1897.40
   
       mode:    181      182      183      184      185      186
  temp. (K):  1899.33  1911.40  1926.74  1928.03  1931.50  1938.75
   
       mode:    187      188      189      190      191      192
  temp. (K):  1944.11  1950.13  1967.86  1972.77  1975.32  1976.57
   
       mode:    193      194      195      196      197      198
  temp. (K):  1981.53  1996.87  2003.22  2010.92  2014.38  2016.39
   
       mode:    199      200      201      202      203      204
  temp. (K):  2019.96  2021.47  2025.30  2027.18  2031.39  2046.24
   
       mode:    205      206      207      208      209      210
  temp. (K):  2049.63  2050.10  2052.80  2074.73  2077.33  2079.09
   
       mode:    211      212      213      214      215      216
  temp. (K):  2103.40  2126.84  2135.53  2158.02  2162.29  2165.25
   
       mode:    217      218      219      220      221      222
  temp. (K):  2166.91  2170.30  2172.40  2174.44  2175.38  2176.74
   
       mode:    223      224      225      226      227      228
  temp. (K):  2180.43  2181.57  2183.09  2184.27  2184.70  2186.71
   
       mode:    229      230      231      232      233      234
  temp. (K):  2188.70  2190.06  2191.08  2192.34  2197.82  2199.50
   
       mode:    235      236      237      238      239      240
  temp. (K):  2200.37  2203.10  2204.61  2205.09  2206.92  2209.05
   
       mode:    241      242      243      244      245      246
  temp. (K):  2211.45  2216.80  2220.02  2316.42  2358.78  2364.37
   
       mode:    247      248      249      250      251      252
  temp. (K):  2375.77  2379.55  2406.24  4346.53  4348.72  4352.98
   
       mode:    253      254      255      256      257      258
  temp. (K):  4353.50  4354.89  4357.39  4363.27  4372.03  4373.65
   
       mode:    259      260      261      262      263      264
  temp. (K):  4373.72  4377.14  4380.80  4381.19  4381.40  4382.48
   
       mode:    265      266      267      268      269      270
  temp. (K):  4387.22  4396.66  4413.46  4418.51  4426.97  4432.84
   
       mode:    271      272      273      274      275      276
  temp. (K):  4436.96  4439.12  4443.04  4445.33  4447.10  4448.88
   
       mode:    277      278      279      280      281      282
  temp. (K):  4450.88  4452.76  4458.36  4460.69  4479.62  4482.43
   
       mode:    283      284      285      286      287      288
  temp. (K):  4483.05  4488.08  4488.59  4493.18  4498.91  4501.97
   
       mode:    289      290      291      292      293      294
  temp. (K):  4509.38  4510.42  4516.17  4516.66  4518.83  4523.24
   
       mode:    295      296      297      298      299      300
  temp. (K):  4533.29  4536.91  4555.28  4557.50  4586.52  4612.21
   
       mode:    301      302      303      304      305      306
  temp. (K):  4614.71  4631.24  4634.40  4643.47  4655.39  4658.00
   
   
  Thermodynamic properties calculated assuming an ideal gas

  In the table below, the units for temperature
  are kelvins, the units for U, H, and G are
  kcal/mol and the units for Cv and S are cal/(mol K)

  The zero point energy (ZPE):    570.095 kcal/mol
  is not included in U, H, or G in the table below
  
 
  =============================================================================
  Thermodynamic properties for P = 1.00E+00 atm, calculated at   1 temperatures


  T =   298.15 K, P = 1.00E+00 atm
   
                  U         Cv          S          H          G        ln(Q)
              =========  =========  =========  =========  =========  =========
  trans.          0.889      2.981     45.976      1.481    -12.227   20.63617
  rot.            0.889      2.981     38.684      0.889    -10.645   17.96651
  vib.           28.913    186.430    177.628     28.913    -24.047   40.58680
  elec.           0.000      0.000      0.000      0.000      0.000    0.00000
  ----------------------------------------------------------------------------
  total          30.690    192.392    262.289     31.283    -46.919   79.18948
   
   Total internal energy, Utot(SCFE + ZPE + U):   -2326.911299 hartrees
   Total enthalpy, Htot (Utot + nRT), with n=1:   -2326.910355 hartrees
    Total Gibbs free energy, Gtot (Htot - T*S):   -2327.034976 hartrees
   
  end of program freq
   
 Time(freq)  user:       0.454  user+sys:       0.454  wallclock:       0.712
  
  start of program post
  
  Writing input files for PBF
  end of program post
   
 Time(post)  user:       0.178  user+sys:       0.178  wallclock:       0.386

 Total cpu seconds     user:  171143.349   user+sys:  171143.349
  
 Total elapsed time:    100634 seconds

Job ox_add_Ar_trans_L1_PL344 completed on bp1-compute130.data.bp.acrc.priv at Mon Apr 14 21:09:55 2025
