Job ox_add_Br_trans_L1_PL344_2 started on bp1-compute050.data.bp.acrc.priv at Sat Apr 19 12:38:47 2025
jobid: bp1-compute050-0-68038b36

  +--------------------------------------------------------------------+
  |  Jaguar version 12.5, release 138                                  |
  |                                                                    |
  |  Copyright Schrodinger, Inc.                                       |
  |  All Rights Reserved.                                              |
  |                                                                    |
  |  The following have contributed to Jaguar (listed alphabetically): |
  |  Ty Balduf, Mike Beachy, Chandler Bennett, Art Bochevarov,         |
  |  Dale Braden, Yixiang Cao, Alan Chien, Chris Cortis,               |
  |  Rich Friesner, Jim Furness, Bill Goddard, Hod Greeley,            |
  |  Tom Hughes, Leif Jacobson, Jean-Marc Langlois, Daniel Levine,     |
  |  Rob Murphy, Dean Philipp, Tom Pollard, Murco Ringnalda,           |
  |  Daniel Mainz, Pablo Videla, Mark Watson, Haoyu Yu.                |
  |                                                                    |
  |  Use of this program should be acknowledged in publications as:    |
  |                                                                    |
  |  Jaguar, version 12.5, Schrodinger, Inc., New York, NY, 2024.      |
  |                                                                    |
  |  A. D. Bochevarov, E. Harder, T. F. Hughes, J. R. Greenwood,       |
  |  D. A. Braden, D. M. Philipp, D. Rinaldo, M. D. Halls,             |
  |  J. Zhang, R. A. Friesner, "Jaguar: A High-Performance Quantum     |
  |  Chemistry Software Program with Strengths in Life and Materials   |
  |  Sciences", Int. J. Quantum Chem., 2013, 113(18), 2110-2142.       |
  +--------------------------------------------------------------------+
  
  start of program pre
  
  Job name: ox_add_Br_trans_L1_PL344_2
  Executables used: /software/local/apps/schrodinger2024-3/jaguar-v12.5/bin/Linux-x86_64
  Temporary files : /tmp/ar21627/ox_add_Br_trans_L1_PL344_2#bp1-compute050-0-68038b36
  Basis file : using default basis file from /software/local/apps/schrodinger2024-3
  Maestro file (input):  ox_add_Br_trans_L1_PL344_2.mae
  Maestro file (output): ox_add_Br_trans_L1_PL344_2.01.mae
  
 Contents of input file: &gen and (if present) &atomic sections only
 ----------------Contents start----------------
&gen
dftname=b3pw91-d3
basis=6-31G*
numd=5
ip11=2
iaccg=3
isolv=2
igeopt=1
solvent=benzene
ifreq=1
&
&atomic
atom basis
Pd2 lacv3p*
Br3 lacv3p*
&
 -----------------Contents end-----------------
 
  PS calculation requested. Using PS version of 6-31g*
  basis set:               non_standard                    
  net molecular charge:    0
  multiplicity:            1
  
  Using up to   4 threads per process
  
  This run will use ECP on            2  atoms
  number of basis functions....          788
  
 Input geometry:
                                   angstroms
  atom               x                 y                 z
  P1            0.0000000000      0.0000000000      0.0000000000 
  Pd2           0.0000000000      0.0000000000      2.3939100518 
  Br3           0.3810184135      2.4056555852      2.9438771575 
  C73           0.0391019899     -0.3473701455      7.1467388941 
  C74           1.2373236018     -0.4764190364      6.4578040662 
  C75           1.2066309732     -0.4877093906      5.0598812781 
  C76          -0.0019572929     -0.3512733944      4.3631094256 
  C77          -1.1917225190     -0.2512215292      5.0948808638 
  C78          -1.1804889372     -0.2414412534      6.4921078543 
  F79           0.0587944342     -0.3327180668      8.5003167647 
  H80           2.1676805482     -0.5748885073      7.0113227854 
  H81           2.1417287329     -0.6045345141      4.5144561280 
  H82          -2.1463103748     -0.1776011089      4.5779990266 
  H83          -2.0962315195     -0.1594231861      7.0726951686 
  C3            1.7300610000      0.0000000000     -0.6757070000 
  C4            2.3683310000     -1.3786470000     -0.9527850000 
  C5            3.6839660000     -1.2353690000     -1.7327820000 
  C6            4.6878420000     -0.3819010000     -0.9461730000 
  C7            4.0786400000      0.9798580000     -0.5868500000 
  C8            2.7482580000      0.8044910000      0.1612460000 
  C9           -0.8180240000      1.4096690000     -0.6917300000 
  C10          -2.2927740000      1.4539250000     -0.2588000000 
  C11          -3.0649390000      2.6131910000     -0.9019730000 
  C12          -2.3959200000      3.9537300000     -0.5771470000 
  C13          -0.9361930000      3.9384250000     -1.0456500000 
  C14          -0.1619940000      2.7737060000     -0.4106920000 
  C15          -0.9407660000     -1.3859480000     -0.6815250000 
  C16          -1.6738125872     -2.3161384009      0.1141116587 
  C17          -2.5134174674     -3.2605751516     -0.5240955105 
  C18          -2.6173510128     -3.2340257141     -1.9234076241 
  C19          -1.9183950075     -2.3015299328     -2.6901990567 
  C20          -1.0735400134     -1.3571029430     -2.0903289547 
  C21          -1.6173562052     -2.3803924065      1.5383804198 
  C22          -2.7097877312     -1.9094792274      2.3328230168 
  C23          -2.6332593259     -1.9776224076      3.7367162723 
  C24          -1.5323793991     -2.4998835426      4.4215486242 
  C25          -0.4834933927     -2.9751426397      3.6298823587 
  C26          -0.4959410722     -2.9302975633      2.2233286354 
  C27           0.6597165394     -3.6503670691      1.5432455634 
  C28           0.4111849899     -5.1687471161      1.6369697773 
  C29           2.0520753415     -3.3232316462      2.1205782138 
  C30          -5.2764701539     -1.8544202661      2.2728574508 
  C31          -3.9580805555     -1.2021048488      1.8051498680 
  C32          -3.9793205492      0.2780220728      2.2452926512 
  C33          -2.8150796849     -3.0883436505      6.5035894791 
  C34          -1.4885595395     -2.5593439017      5.9346712514 
  C35          -0.2968682674     -3.4002133511      6.4208962329 
  O36          -0.4225270217     -0.4247376911     -2.8440797967 
  C37          -0.3948513675     -0.3896798114     -4.2552232135 
  O38          -3.1425212944     -4.2311405531      0.2038031613 
  C39          -3.8201344277     -5.3387864864     -0.3554691446 
  H40           1.6344330000      0.5420470000     -1.6433500000 
  H41           1.6814530000     -2.0423920000     -1.5239010000 
  H42           2.5802080000     -1.9043560000      0.0047220000 
  H43           4.1212220000     -2.2431430000     -1.9335920000 
  H44           3.4816040000     -0.7640100000     -2.7240900000 
  H45           5.6210130000     -0.2397150000     -1.5425970000 
  H46           4.9748910000     -0.9171950000     -0.0096740000 
  H47           4.7964410000      1.5609340000      0.0409890000 
  H48           3.9073530000      1.5709840000     -1.5179420000 
  H49           2.3481220000      1.8072140000      0.4333270000 
  H50           2.9401670000      0.2834650000      1.1268150000 
  H51          -0.7997930000      1.2640200000     -1.7961970000 
  H52          -2.3371980000      1.5493870000      0.8518520000 
  H53          -2.7961720000      0.4982840000     -0.5365800000 
  H54          -3.1011620000      2.4693480000     -2.0082010000 
  H55          -4.1204230000      2.6175750000     -0.5372480000 
  H56          -2.4356110000      4.1371990000      0.5230460000 
  H57          -2.9491600000      4.7878510000     -1.0721710000 
  H58          -0.9047120000      3.8440790000     -2.1575050000 
  H59          -0.4455580000      4.9074950000     -0.7861250000 
  H60          -0.0908130000      2.9280340000      0.6918250000 
  H61           0.8719580000      2.7918690000     -0.8252090000 
  H62          -3.2516120760     -3.9563310413     -2.4611165482 
  H63          -2.0569832094     -2.3305787981     -3.7826179339 
  H64          -3.4628719227     -1.5951733762      4.3492819409 
  H65           0.3683605404     -3.4233840986      4.1587189205 
  H66           0.6619608496     -3.4545333448      0.4518470850 
  H67           0.3973772249     -5.5217594052      2.6934197610 
  H68          -0.5673128590     -5.4437891920      1.1783759355 
  H69           1.2040407121     -5.7424013396      1.1030713023 
  H70           2.2199262441     -3.7634442479      3.1283586141 
  H71           2.8607204490     -3.7399521189      1.4784284700 
  H72           2.2093754295     -2.2252668878      2.2097788247 
  H73          -5.4892537843     -1.6636343975      3.3485871750 
  H74          -6.1439797118     -1.4553315805      1.6981876388 
  H75          -5.2674518551     -2.9584909057      2.1496987963 
  H76          -3.9553691014     -1.1528827153      0.6935616443 
  H77          -4.0937450956      0.3976544812      3.3461014525 
  H78          -4.8233131173      0.8289149816      1.7689715750 
  H79          -3.0408642423      0.8011361576      1.9625162942 
  H92          -3.0107544525     -4.1396248284      6.1928047055 
  H93          -3.6719532739     -2.4655835889      6.1569149929 
  H94          -2.8108454022     -3.0660057714      7.6177876790 
  H95          -1.3464893951     -1.5256904948      6.3343583959 
  H84          -0.3851597332     -4.4660285039      6.1106323585 
  H85           0.6612585424     -3.0043576264      6.0115371522 
  H86          -0.2212985580     -3.3830983815      7.5326355087 
  H87           0.2662325470      0.4570177668     -4.5473824852 
  H88          -1.4248372171     -0.2050876112     -4.6362133438 
  H89           0.0354341860     -1.3447297159     -4.6338480700 
  H90          -4.1280411365     -6.0032803575      0.4824275867 
  H91          -4.7246548741     -4.9759584177     -0.8946163398 
  H104         -3.1227742304     -5.8966496108     -1.0211133810 
   
  principal moments of inertia:
        amu*angstrom^2:              6961.94904              9188.84902             10746.32153
                g*cm^2:          1.15605869E-36          1.52584409E-36          1.78446845E-36
   
  rotational constants:
               cm^(-1):      0.00242140      0.00183457      0.00156869
                   GHz:      0.07259160      0.05499916      0.04702809
   
  Molecular weight:     816.23 amu
   
  Stoichiometry: PdC41PH57BrO2F
  Molecular Point Group: C1      
  Point Group used: C1
  
 
Number of optimization coordinates:   344
Number of independent coordinates:    344
Number of non-redundant coordinates:  306
Number of frozen coordinates:           0
Number of harmonic constraints:         0
 
Number of geometric degrees of freedom:   306
Maximum geometric degrees of freedom:     306
 " " " " " excluding dummy atoms:         306
 
 
  bond lengths (angstroms):
 
 P1      -Pd2     :   2.393910      P1      -C3      :   1.857334
 P1      -C9      :   1.770542      P1      -C15     :   1.808416
 Pd2     -Br3     :   2.496962      Pd2     -C76     :   2.000286
 C73     -C74     :   1.388171      C73     -C78     :   1.388224
 C73     -F79     :   1.353800      C74     -C75     :   1.398305
 C74     -H80     :   1.087034      C75     -C76     :   1.401710
 C75     -H81     :   1.088827      C76     -C77     :   1.400372
 C77     -C78     :   1.397306      C77     -H82     :   1.088037
 C78     -H83     :   1.087379      C3      -C4      :   1.544289
 C3      -C8      :   1.544157      C3      -H40     :   1.113235
 C4      -C5      :   1.536170      C4      -H41     :   1.112894
 C4      -H42     :   1.112691      C5      -C6      :   1.534578
 C5      -H43     :   1.116748      C5      -H44     :   1.116164
 C6      -C7      :   1.534480      C6      -H45     :   1.116578
 C6      -H46     :   1.116229      C7      -C8      :   1.536332
 C7      -H47     :   1.116723      C7      -H48     :   1.116110
 C8      -H49     :   1.113369      C8      -H50     :   1.113832
 C9      -C10     :   1.537620      C9      -C14     :   1.539466
 C9      -H51     :   1.114178      C10     -C11     :   1.534212
 C10     -H52     :   1.115632      C10     -H53     :   1.115267
 C11     -C12     :   1.533018      C11     -H54     :   1.116129
 C11     -H55     :   1.116732      C12     -C13     :   1.533145
 C12     -H56     :   1.116092      C12     -H57     :   1.116638
 C13     -C14     :   1.535945      C13     -H58     :   1.116295
 C13     -H59     :   1.116769      C14     -H60     :   1.115539
 C14     -H61     :   1.114096      C15     -C16     :   1.426762
 C15     -C20     :   1.415341      C16     -C17     :   1.415700
 C16     -C21     :   1.426835      C17     -C18     :   1.403418
 C17     -O38     :   1.366604      C18     -C19     :   1.395011
 C18     -H62     :   1.101428      C19     -C20     :   1.401987
 C19     -H63     :   1.101558      C20     -O36     :   1.364281
 C21     -C22     :   1.430491      C21     -C26     :   1.424472
 C22     -C23     :   1.407628      C22     -C31     :   1.528742
 C23     -C24     :   1.397744      C23     -H64     :   1.099891
 C24     -C25     :   1.397415      C24     -C34     :   1.514924
 C25     -C26     :   1.407323      C25     -H65     :   1.098291
 C26     -C27     :   1.522024      C27     -C28     :   1.541438
 C27     -C29     :   1.542399      C27     -H66     :   1.108831
 C28     -H67     :   1.113955      C28     -H68     :   1.115085
 C28     -H69     :   1.114786      C29     -H70     :   1.112467
 C29     -H71     :   1.113517      C29     -H72     :   1.112756
 C30     -C31     :   1.543508      C30     -H73     :   1.113046
 C30     -H74     :   1.114491      C30     -H75     :   1.110955
 C31     -C32     :   1.544329      C31     -H76     :   1.112681
 C32     -H77     :   1.113187      C32     -H78     :   1.114759
 C32     -H79     :   1.110996      C33     -C34     :   1.537259
 C33     -H92     :   1.113583      C33     -H93     :   1.114561
 C33     -H94     :   1.114430      C34     -C35     :   1.537402
 C34     -H95     :   1.117306      C35     -H84     :   1.113562
 C35     -H85     :   1.114578      C35     -H86     :   1.114436
 O36     -C37     :   1.411850      C37     -H87     :   1.113232
 C37     -H88     :   1.113597      C37     -H89     :   1.113832
 O38     -C39     :   1.413798      C39     -H90     :   1.112848
 C39     -H91     :   1.113769      C39     -H104    :   1.113824
 
  bond angles:
 
 C3      -P1      -Pd2     : 111.334041  C9      -P1      -Pd2     : 112.997327
 C9      -P1      -C3      : 106.751716  C15     -P1      -Pd2     : 112.139500
 C15     -P1      -C3      : 110.332238  C15     -P1      -C9      : 102.861598
 Br3     -Pd2     -P1      : 102.723983  C76     -Pd2     -P1      : 169.885589
 C76     -Pd2     -Br3     :  87.277873  C78     -C73     -C74     : 122.098525
 F79     -C73     -C74     : 118.990092  F79     -C73     -C78     : 118.910051
 C75     -C74     -C73     : 118.552117  H80     -C74     -C73     : 119.634489
 H80     -C74     -C75     : 121.810823  C76     -C75     -C74     : 121.003524
 H81     -C75     -C74     : 118.868929  H81     -C75     -C76     : 120.127545
 C75     -C76     -Pd2     : 120.371939  C77     -C76     -Pd2     : 120.180024
 C77     -C76     -C75     : 118.669095  C78     -C77     -C76     : 121.077373
 H82     -C77     -C76     : 120.131815  H82     -C77     -C78     : 118.790726
 C77     -C78     -C73     : 118.558919  H83     -C78     -C73     : 119.592635
 H83     -C78     -C77     : 121.847482  C4      -C3      -P1      : 116.760510
 C8      -C3      -P1      : 114.646323  C8      -C3      -C4      : 106.847527
 H40     -C3      -P1      : 103.662995  H40     -C3      -C4      : 108.314501
 H40     -C3      -C8      : 105.907946  C5      -C4      -C3      : 111.211448
 H41     -C4      -C3      : 111.679997  H41     -C4      -C5      : 108.883871
 H42     -C4      -C3      : 110.248545  H42     -C4      -C5      : 108.537431
 H42     -C4      -H41     : 106.102112  C6      -C5      -C4      : 110.601118
 H43     -C5      -C4      : 110.027297  H43     -C5      -C6      : 109.750386
 H44     -C5      -C4      : 109.576838  H44     -C5      -C6      : 109.815095
 H44     -C5      -H43     : 107.000444  C7      -C6      -C5      : 110.724618
 H45     -C6      -C5      : 110.104777  H45     -C6      -C7      : 110.112838
 H46     -C6      -C5      : 109.364249  H46     -C6      -C7      : 109.342233
 H46     -C6      -H45     : 107.115239  C8      -C7      -C6      : 110.886276
 H47     -C7      -C6      : 109.769420  H47     -C7      -C8      : 110.013431
 H48     -C7      -C6      : 109.608747  H48     -C7      -C8      : 109.498195
 H48     -C7      -H47     : 106.982164  C7      -C8      -C3      : 111.502229
 H49     -C8      -C3      : 111.388588  H49     -C8      -C7      : 109.111490
 H50     -C8      -C3      : 109.862699  H50     -C8      -C7      : 109.045316
 H50     -C8      -H49     : 105.745522  C10     -C9      -P1      : 110.857327
 C14     -C9      -P1      : 115.928139  C14     -C9      -C10     : 109.378978
 H51     -C9      -P1      : 106.000389  H51     -C9      -C10     : 107.371173
 H51     -C9      -C14     : 106.847078  C11     -C10     -C9      : 112.732647
 H52     -C10     -C9      : 108.720752  H52     -C10     -C11     : 109.429831
 H53     -C10     -C9      : 109.762611  H53     -C10     -C11     : 108.413472
 H53     -C10     -H52     : 107.656261  C12     -C11     -C10     : 110.626189
 H54     -C11     -C10     : 109.539408  H54     -C11     -C12     : 109.686039
 H55     -C11     -C10     : 109.983071  H55     -C11     -C12     : 109.866913
 H55     -C11     -H54     : 107.069708  C13     -C12     -C11     : 110.000606
 H56     -C12     -C11     : 109.699947  H56     -C12     -C13     : 109.677805
 H57     -C12     -C11     : 110.062984  H57     -C12     -C13     : 110.103242
 H57     -C12     -H56     : 107.252736  C14     -C13     -C12     : 111.171369
 H58     -C13     -C12     : 109.393996  H58     -C13     -C14     : 109.478303
 H59     -C13     -C12     : 109.792782  H59     -C13     -C14     : 109.907327
 H59     -C13     -H58     : 107.002557  C13     -C14     -C9      : 112.434621
 H60     -C14     -C9      : 109.280610  H60     -C14     -C13     : 109.622954
 H61     -C14     -C9      : 109.999296  H61     -C14     -C13     : 107.554917
 H61     -C14     -H60     : 107.833293  C16     -C15     -P1      : 123.832937
 C20     -C15     -P1      : 114.098396  C20     -C15     -C16     : 121.343339
 C17     -C16     -C15     : 119.225455  C21     -C16     -C15     : 124.449485
 C21     -C16     -C17     : 116.322323  C18     -C17     -C16     : 118.736932
 O38     -C17     -C16     : 120.443358  O38     -C17     -C18     : 120.691735
 C19     -C18     -C17     : 121.573946  H62     -C18     -C17     : 121.131545
 H62     -C18     -C19     : 117.293272  C20     -C19     -C18     : 121.133741
 H63     -C19     -C18     : 117.674159  H63     -C19     -C20     : 121.191582
 C19     -C20     -C15     : 117.949811  O36     -C20     -C15     : 121.271958
 O36     -C20     -C19     : 120.765950  C22     -C21     -C16     : 120.618772
 C26     -C21     -C16     : 121.905017  C26     -C21     -C22     : 117.467414
 C23     -C22     -C21     : 119.764417  C31     -C22     -C21     : 125.747183
 C31     -C22     -C23     : 114.270544  C24     -C23     -C22     : 123.337088
 H64     -C23     -C22     : 119.842345  H64     -C23     -C24     : 116.815584
 C25     -C24     -C23     : 116.147259  C34     -C24     -C23     : 121.790863
 C34     -C24     -C25     : 122.058730  C26     -C25     -C24     : 123.280324
 H65     -C25     -C24     : 116.627553  H65     -C25     -C26     : 120.073501
 C25     -C26     -C21     : 119.989746  C27     -C26     -C21     : 124.439266
 C27     -C26     -C25     : 115.137511  C28     -C27     -C26     : 108.447251
 C29     -C27     -C26     : 114.697965  C29     -C27     -C28     : 109.372768
 H66     -C27     -C26     : 110.964197  H66     -C27     -C28     : 103.541195
 H66     -C27     -C29     : 109.216446  H67     -C28     -C27     : 111.828064
 H68     -C28     -C27     : 111.066057  H68     -C28     -H67     : 107.517143
 H69     -C28     -C27     : 111.290528  H69     -C28     -H67     : 107.454287
 H69     -C28     -H68     : 107.470254  H70     -C29     -C27     : 113.039231
 H71     -C29     -C27     : 111.120614  H71     -C29     -H70     : 105.352549
 H72     -C29     -C27     : 111.523991  H72     -C29     -H70     : 107.247586
 H72     -C29     -H71     : 108.230131  H73     -C30     -C31     : 112.563474
 H74     -C30     -C31     : 110.933396  H74     -C30     -H73     : 106.747858
 H75     -C30     -C31     : 112.301123  H75     -C30     -H73     : 106.202930
 H75     -C30     -H74     : 107.759837  C30     -C31     -C22     : 113.410265
 C32     -C31     -C22     : 110.875326  C32     -C31     -C30     : 107.874938
 H76     -C31     -C22     : 111.303542  H76     -C31     -C30     : 108.874448
 H76     -C31     -C32     : 104.025938  H77     -C32     -C31     : 112.721430
 H78     -C32     -C31     : 111.239696  H78     -C32     -H77     : 106.953943
 H79     -C32     -C31     : 111.538001  H79     -C32     -H77     : 106.733468
 H79     -C32     -H78     : 107.342713  H92     -C33     -C34     : 111.913632
 H93     -C33     -C34     : 110.855877  H93     -C33     -H92     : 107.793726
 H94     -C33     -C34     : 111.089936  H94     -C33     -H92     : 107.374596
 H94     -C33     -H93     : 107.619723  C33     -C34     -C24     : 110.989231
 C35     -C34     -C24     : 111.086461  C35     -C34     -C33     : 111.322334
 H95     -C34     -C24     : 108.945303  H95     -C34     -C33     : 107.198855
 H95     -C34     -C35     : 107.115307  H84     -C35     -C34     : 111.957177
 H85     -C35     -C34     : 110.849828  H85     -C35     -H84     : 107.803871
 H86     -C35     -C34     : 111.079362  H86     -C35     -H84     : 107.338962
 H86     -C35     -H85     : 107.616392  C37     -O36     -C20     : 125.347685
 H87     -C37     -O36     : 107.027922  H88     -C37     -O36     : 109.143780
 H88     -C37     -H87     : 109.474790  H89     -C37     -O36     : 109.028651
 H89     -C37     -H87     : 109.483317  H89     -C37     -H88     : 112.528252
 C39     -O38     -C17     : 124.495828  H90     -C39     -O38     : 107.612303
 H91     -C39     -O38     : 108.996383  H91     -C39     -H90     : 109.529437
 H104    -C39     -O38     : 109.191410  H104    -C39     -H90     : 108.912965
 H104    -C39     -H91     : 112.478480
 
  torsional angles:
 
 P1      -Pd2     -C76     -C75     :  89.747905
 P1      -Pd2     -C76     -C77     :-100.493899
 P1      -C3      -C4      -C5      : 169.923669
 P1      -C3      -C4      -H41     :  48.060819
 P1      -C3      -C4      -H42     : -69.634716
 P1      -C3      -C8      -C7      :-169.287675
 P1      -C3      -C8      -H49     : -47.131717
 P1      -C3      -C8      -H50     :  69.699520
 P1      -C9      -C10     -C11     :-176.567334
 P1      -C9      -C10     -H52     :  61.912220
 P1      -C9      -C10     -H53     : -55.607106
 P1      -C9      -C14     -C13     :-179.962271
 P1      -C9      -C14     -H60     : -58.000942
 P1      -C9      -C14     -H61     :  60.201212
 P1      -C15     -C16     -C17     : 171.983891
 P1      -C15     -C16     -C21     :  -8.641080
 P1      -C15     -C20     -C19     :-172.587532
 P1      -C15     -C20     -O36     :   6.146929
 Pd2     -P1      -C3      -C4      :  91.075667
 Pd2     -P1      -C3      -C8      : -34.974391
 Pd2     -P1      -C3      -H40     :-149.927766
 Pd2     -P1      -C9      -C10     : -60.723470
 Pd2     -P1      -C9      -C14     :  64.731663
 Pd2     -P1      -C9      -H51     :-176.931342
 Pd2     -P1      -C15     -C16     :   4.069141
 Pd2     -P1      -C15     -C20     : 174.400874
 Pd2     -C76     -C75     -C74     : 167.622400
 Pd2     -C76     -C75     -H81     : -12.357611
 Pd2     -C76     -C77     -C78     :-167.803463
 Pd2     -C76     -C77     -H82     :  12.088620
 Br3     -Pd2     -P1      -C3      :  81.000000
 Br3     -Pd2     -P1      -C9      : -39.126383
 Br3     -Pd2     -P1      -C15     :-154.831778
 Br3     -Pd2     -C76     -C75     : -81.776473
 Br3     -Pd2     -C76     -C77     :  87.981723
 C73     -C74     -C75     -C76     :   0.978288
 C73     -C74     -C75     -H81     :-179.041455
 C73     -C78     -C77     -C76     :  -0.660408
 C73     -C78     -C77     -H82     : 179.446091
 C74     -C73     -C78     -C77     :  -0.712150
 C74     -C73     -C78     -H83     : 178.937316
 C74     -C75     -C76     -C77     :  -2.288612
 C75     -C74     -C73     -C78     :   0.554537
 C75     -C74     -C73     -F79     :-179.870066
 C75     -C76     -C77     -C78     :   2.127464
 C75     -C76     -C77     -H82     :-177.980453
 C76     -Pd2     -P1      -C3      : -90.319248
 C76     -Pd2     -P1      -C9      : 149.554369
 C76     -Pd2     -P1      -C15     :  33.848974
 C76     -C75     -C74     -H80     :-179.607446
 C76     -C77     -C78     -H83     : 179.698421
 C77     -C76     -C75     -H81     : 177.731377
 C77     -C78     -C73     -F79     : 179.712125
 C78     -C73     -C74     -H80     :-178.872806
 F79     -C73     -C74     -H80     :   0.702591
 F79     -C73     -C78     -H83     :  -0.638409
 H80     -C74     -C75     -H81     :   0.372812
 H82     -C77     -C78     -H83     :  -0.195079
 C3      -P1      -C9      -C10     : 176.560205
 C3      -P1      -C9      -C14     : -57.984661
 C3      -P1      -C9      -H51     :  60.352333
 C3      -P1      -C15     -C16     : 128.793160
 C3      -P1      -C15     -C20     : -60.875107
 C3      -C4      -C5      -C6      :  59.308658
 C3      -C4      -C5      -H43     :-179.274375
 C3      -C4      -C5      -H44     : -61.892393
 C3      -C8      -C7      -C6      : -58.192460
 C3      -C8      -C7      -H47     :-179.812198
 C3      -C8      -C7      -H48     :  62.882889
 C4      -C3      -P1      -C9      :-145.173781
 C4      -C3      -P1      -C15     : -34.107767
 C4      -C3      -C8      -C7      :  59.675156
 C4      -C3      -C8      -H49     :-178.168885
 C4      -C3      -C8      -H50     : -61.337649
 C4      -C5      -C6      -C7      : -55.119754
 C4      -C5      -C6      -H45     :-177.126106
 C4      -C5      -C6      -H46     :  65.433232
 C5      -C4      -C3      -C8      : -60.233288
 C5      -C4      -C3      -H40     :  53.463667
 C5      -C6      -C7      -C8      :  54.573566
 C5      -C6      -C7      -H47     : 176.336307
 C5      -C6      -C7      -H48     : -66.436546
 C6      -C5      -C4      -H41     :-177.216787
 C6      -C5      -C4      -H42     : -62.137696
 C6      -C7      -C8      -H49     : 178.348316
 C6      -C7      -C8      -H50     :  63.296121
 C7      -C6      -C5      -H43     :-176.700207
 C7      -C6      -C5      -H44     :  65.940081
 C7      -C8      -C3      -H40     : -55.646904
 C8      -C3      -P1      -C9      :  88.776161
 C8      -C3      -P1      -C15     :-160.157826
 C8      -C3      -C4      -H41     : 177.903862
 C8      -C3      -C4      -H42     :  60.208326
 C8      -C7      -C6      -H45     : 176.575196
 C8      -C7      -C6      -H46     : -65.992517
 C9      -P1      -C3      -H40     : -26.177214
 C9      -P1      -C15     -C16     :-117.635352
 C9      -P1      -C15     -C20     :  52.696382
 C9      -C10     -C11     -C12     : -57.021071
 C9      -C10     -C11     -H54     :  64.010740
 C9      -C10     -C11     -H55     :-178.571318
 C9      -C14     -C13     -C12     :  56.244359
 C9      -C14     -C13     -H58     : -64.733025
 C9      -C14     -C13     -H59     : 178.011177
 C10     -C9      -P1      -C15     :  60.397225
 C10     -C9      -C14     -C13     : -53.757089
 C10     -C9      -C14     -H60     :  68.204241
 C10     -C9      -C14     -H61     :-173.593606
 C10     -C11     -C12     -C13     :  56.989562
 C10     -C11     -C12     -H56     : -63.737169
 C10     -C11     -C12     -H57     : 178.478605
 C11     -C10     -C9      -C14     :  54.380734
 C11     -C10     -C9      -H51     : -61.210102
 C11     -C12     -C13     -C14     : -56.858653
 C11     -C12     -C13     -H58     :  64.168238
 C11     -C12     -C13     -H59     :-178.692164
 C12     -C11     -C10     -H52     :  64.096393
 C12     -C11     -C10     -H53     :-178.747869
 C12     -C13     -C14     -H60     : -65.522455
 C12     -C13     -C14     -H61     : 177.489555
 C13     -C12     -C11     -H54     : -63.955251
 C13     -C12     -C11     -H55     : 178.608293
 C13     -C14     -C9      -H51     :  62.168088
 C14     -C9      -P1      -C15     :-174.147642
 C14     -C9      -C10     -H52     : -67.139713
 C14     -C9      -C10     -H53     : 175.340961
 C14     -C13     -C12     -H56     :  63.881404
 C14     -C13     -C12     -H57     :-178.323655
 C15     -P1      -C3      -H40     :  84.888800
 C15     -P1      -C9      -H51     : -55.810647
 C15     -C16     -C17     -C18     :  -1.211674
 C15     -C16     -C17     -O38     : 174.704477
 C15     -C16     -C21     -C22     : 106.312724
 C15     -C16     -C21     -C26     : -74.793750
 C15     -C20     -C19     -C18     :   0.582654
 C15     -C20     -C19     -H63     :-179.685155
 C15     -C20     -O36     -C37     : 173.920676
 C16     -C15     -C20     -C19     :  -1.988453
 C16     -C15     -C20     -O36     : 176.746008
 C16     -C17     -C18     -C19     :  -0.160242
 C16     -C17     -C18     -H62     : 179.424135
 C16     -C17     -O38     -C39     :-169.338857
 C16     -C21     -C22     -C23     :-179.803181
 C16     -C21     -C22     -C31     :  -5.486577
 C16     -C21     -C26     -C25     :-179.918040
 C16     -C21     -C26     -C27     :  -7.851630
 C17     -C16     -C15     -C20     :   2.324640
 C17     -C16     -C21     -C22     : -74.295785
 C17     -C16     -C21     -C26     : 104.597740
 C17     -C18     -C19     -C20     :   0.485811
 C17     -C18     -C19     -H63     :-179.255501
 C17     -O38     -C39     -H90     : 173.917434
 C17     -O38     -C39     -H91     : -67.382869
 C17     -O38     -C39     -H104    :  55.845501
 C18     -C17     -C16     -C21     : 179.363309
 C18     -C17     -O38     -C39     :   6.496845
 C18     -C19     -C20     -O36     :-178.158510
 C19     -C18     -C17     -O38     :-176.065905
 C19     -C20     -O36     -C37     :  -7.380356
 C20     -C15     -C16     -C21     :-178.300331
 C20     -C19     -C18     -H62     :-179.113854
 C20     -O36     -C37     -H87     :-176.871282
 C20     -O36     -C37     -H88     :  64.743069
 C20     -O36     -C37     -H89     : -58.537095
 C21     -C16     -C17     -O38     :  -4.720540
 C21     -C22     -C23     -C24     :  -0.533899
 C21     -C22     -C23     -H64     : 178.627488
 C21     -C22     -C31     -C30     : 127.107180
 C21     -C22     -C31     -C32     :-111.353379
 C21     -C22     -C31     -H76     :   3.932119
 C21     -C26     -C25     -C24     :  -0.025920
 C21     -C26     -C25     -H65     : 178.350264
 C21     -C26     -C27     -C28     : -97.611058
 C21     -C26     -C27     -C29     : 139.820877
 C21     -C26     -C27     -H66     :  15.476161
 C22     -C21     -C26     -C25     :  -0.991216
 C22     -C21     -C26     -C27     : 171.075193
 C22     -C23     -C24     -C25     :  -0.479812
 C22     -C23     -C24     -C34     :-179.846713
 C22     -C31     -C30     -H73     :  72.797348
 C22     -C31     -C30     -H74     :-167.661808
 C22     -C31     -C30     -H75     : -47.005828
 C22     -C31     -C32     -H77     : -66.380744
 C22     -C31     -C32     -H78     : 173.491349
 C22     -C31     -C32     -H79     :  53.675279
 C23     -C22     -C21     -C26     :   1.255466
 C23     -C22     -C31     -C30     : -58.303934
 C23     -C22     -C31     -C32     :  63.235507
 C23     -C22     -C31     -H76     : 178.521005
 C23     -C24     -C25     -C26     :   0.764190
 C23     -C24     -C25     -H65     :-177.663878
 C23     -C24     -C34     -C33     :  45.275623
 C23     -C24     -C34     -C35     : 169.701470
 C23     -C24     -C34     -H95     : -72.533846
 C24     -C23     -C22     -C31     :-175.475746
 C24     -C25     -C26     -C27     :-172.802318
 C24     -C34     -C33     -H92     :  63.944766
 C24     -C34     -C33     -H93     : -56.435995
 C24     -C34     -C33     -H94     :-176.046948
 C24     -C34     -C35     -H84     : -64.132907
 C24     -C34     -C35     -H85     :  56.286118
 C24     -C34     -C35     -H86     : 175.881942
 C25     -C24     -C23     -H64     :-179.664753
 C25     -C24     -C34     -C33     :-134.053806
 C25     -C24     -C34     -C35     :  -9.627960
 C25     -C24     -C34     -H95     : 108.136725
 C25     -C26     -C27     -C28     :  74.800742
 C25     -C26     -C27     -C29     : -47.767323
 C25     -C26     -C27     -H66     :-172.112039
 C26     -C21     -C22     -C31     : 175.572070
 C26     -C25     -C24     -C34     :-179.870756
 C26     -C27     -C28     -H67     : -62.918265
 C26     -C27     -C28     -H68     :  57.197085
 C26     -C27     -C28     -H69     : 176.891982
 C26     -C27     -C29     -H70     :  71.409840
 C26     -C27     -C29     -H71     :-170.380230
 C26     -C27     -C29     -H72     : -49.526381
 C27     -C26     -C25     -H65     :   5.573866
 C28     -C27     -C29     -H70     : -50.657022
 C28     -C27     -C29     -H71     :  67.552907
 C28     -C27     -C29     -H72     :-171.593244
 C29     -C27     -C28     -H67     :  62.827879
 C29     -C27     -C28     -H68     :-177.056771
 C29     -C27     -C28     -H69     : -57.361874
 C30     -C31     -C32     -H77     :  58.354625
 C30     -C31     -C32     -H78     : -61.773282
 C30     -C31     -C32     -H79     : 178.410648
 C31     -C22     -C23     -H64     :   3.685641
 C32     -C31     -C30     -H73     : -50.406801
 C32     -C31     -C30     -H74     :  69.134043
 C32     -C31     -C30     -H75     :-170.209977
 C33     -C34     -C35     -H84     :  60.104192
 C33     -C34     -C35     -H85     :-179.476782
 C33     -C34     -C35     -H86     : -59.880958
 C34     -C24     -C23     -H64     :   0.968346
 C34     -C24     -C25     -H65     :   1.701176
 C35     -C34     -C33     -H92     : -60.347228
 C35     -C34     -C33     -H93     : 179.272011
 C35     -C34     -C33     -H94     :  59.661058
 O36     -C20     -C19     -H63     :   1.573680
 O38     -C17     -C18     -H62     :   3.518472
 H40     -C3      -C4      -H41     : -68.399183
 H40     -C3      -C4      -H42     : 173.905282
 H40     -C3      -C8      -H49     :  66.509054
 H40     -C3      -C8      -H50     :-176.659709
 H41     -C4      -C5      -H43     : -55.799821
 H41     -C4      -C5      -H44     :  61.582161
 H42     -C4      -C5      -H43     :  59.279271
 H42     -C4      -C5      -H44     : 176.661253
 H43     -C5      -C6      -H45     :  61.293441
 H43     -C5      -C6      -H46     : -56.147221
 H44     -C5      -C6      -H45     : -56.066271
 H44     -C5      -C6      -H46     :-173.506933
 H45     -C6      -C7      -H47     : -61.662063
 H45     -C6      -C7      -H48     :  55.565084
 H46     -C6      -C7      -H47     :  55.770224
 H46     -C6      -C7      -H48     : 172.997372
 H47     -C7      -C8      -H49     :  56.728577
 H47     -C7      -C8      -H50     : -58.323618
 H48     -C7      -C8      -H49     : -60.576336
 H48     -C7      -C8      -H50     :-175.628531
 H51     -C9      -C10     -H52     : 177.269451
 H51     -C9      -C10     -H53     :  59.750125
 H51     -C9      -C14     -H60     :-175.870582
 H51     -C9      -C14     -H61     : -57.668429
 H52     -C10     -C11     -H54     :-174.871796
 H52     -C10     -C11     -H55     : -57.453854
 H53     -C10     -C11     -H54     : -57.716058
 H53     -C10     -C11     -H55     :  59.701883
 H54     -C11     -C12     -H56     : 175.318019
 H54     -C11     -C12     -H57     :  57.533792
 H55     -C11     -C12     -H56     :  57.881563
 H55     -C11     -C12     -H57     : -59.902664
 H56     -C12     -C13     -H58     :-175.091706
 H56     -C12     -C13     -H59     : -57.952107
 H57     -C12     -C13     -H58     : -57.296765
 H57     -C12     -C13     -H59     :  59.842834
 H58     -C13     -C14     -H60     : 173.500161
 H58     -C13     -C14     -H61     :  56.512171
 H59     -C13     -C14     -H60     :  56.244363
 H59     -C13     -C14     -H61     : -60.743627
 H62     -C18     -C19     -H63     :   1.144834
 H66     -C27     -C28     -H67     : 179.158608
 H66     -C27     -C28     -H68     : -60.726042
 H66     -C27     -C28     -H69     :  58.968856
 H66     -C27     -C29     -H70     :-163.325785
 H66     -C27     -C29     -H71     : -45.115856
 H66     -C27     -C29     -H72     :  75.737993
 H73     -C30     -C31     -H76     :-162.702274
 H74     -C30     -C31     -H76     : -43.161430
 H75     -C30     -C31     -H76     :  77.494550
 H76     -C31     -C32     -H77     : 173.880183
 H76     -C31     -C32     -H78     :  53.752275
 H76     -C31     -C32     -H79     : -66.063794
 H92     -C33     -C34     -H95     :-177.188994
 H93     -C33     -C34     -H95     :  62.430244
 H94     -C33     -C34     -H95     : -57.180708
 H95     -C34     -C35     -H84     : 176.996873
 H95     -C34     -C35     -H85     : -62.584102
 H95     -C34     -C35     -H86     :  57.011722
 
  nuclear repulsion energy.......          7535.326569090 hartrees
  
  Detected an organometallic with only one TM atom. 
  
  Oxidation state on metal       2 is     2
  Formal multiplet on metal      2 is     1
  Formal charge on ligand        3 is    -1
  Formal multiplet on ligand     3 is     1
  Formal charge on ligand        4 is    -1
  Formal multiplet on ligand     4 is     1
  
 
  Will use High-Quality Initial guess for organometallics
       including d-d repulsion (iguess=30)
 
 Non-default options chosen:
   SCF calculation type: DFT(b3pw91-d3)              
   DFT=Becke_3_Parameter/HF+Slater+Becke88+PW91+PW-GGAIIC (B3PW91-D3)
   Geometry will be optimized in redundant internal coordinates
   Solvation energy will be computed using PBF
     -solute cavity energy will not be included
     -surface area terms will not be included
   Vibrational frequencies and related properties will be computed
      from analytic second derivatives
   IR intensities will be computed
   Thermochemical properties will be computed
   Maximum number of geometry steps: 100
   Scaling standard convergence criteria by a factor of   5.00
   Solvent: benzene                                                         
   Internal dielectric constant:    1.000
   Continuum dielectric constant:   2.283
   Solvent probe molecule radius:   2.600
  
 Non-default print settings:
     11=  2
  
 Temporary integer options set:
     21= -1  73=  2
  
  atom       vdw   vdw2    cov     mass  grid  daf  charge   basis
  P1        2.147  2.074  1.060   30.974    Y    Y      Y    ps_6-31g*
  Pd2       1.450  1.450  1.280  105.903    Y    Y      Y    lacv3p*
  Br3       2.095  2.095  1.140   78.918    Y    Y      Y    lav3p*
  C73       1.949  1.900  0.770   12.000    Y    Y      Y    ps_6-31g*
  C74       1.949  1.900  0.770   12.000    Y    Y      Y    ps_6-31g*
  C75       1.949  1.900  0.770   12.000    Y    Y      Y    ps_6-31g*
  C76       1.949  1.900  0.770   12.000    Y    Y      Y    ps_6-31g*
  C77       1.949  1.900  0.770   12.000    Y    Y      Y    ps_6-31g*
  C78       1.949  1.900  0.770   12.000    Y    Y      Y    ps_6-31g*
  F79       1.736  1.682  0.720   18.998    Y    Y      Y    ps_6-31g*
  H80       1.597  1.150  0.320    1.008    Y    Y      Y    ps_6-31g*
  H81       1.597  1.150  0.320    1.008    Y    Y      Y    ps_6-31g*
  H82       1.597  1.150  0.320    1.008    Y    Y      Y    ps_6-31g*
  H83       1.597  1.150  0.320    1.008    Y    Y      Y    ps_6-31g*
  C3        1.949  1.900  0.770   12.000    Y    Y      Y    ps_6-31g*
  C4        1.949  1.900  0.770   12.000    Y    Y      Y    ps_6-31g*
  C5        1.949  1.900  0.770   12.000    Y    Y      Y    ps_6-31g*
  C6        1.949  1.900  0.770   12.000    Y    Y      Y    ps_6-31g*
  C7        1.949  1.900  0.770   12.000    Y    Y      Y    ps_6-31g*
  C8        1.949  1.900  0.770   12.000    Y    Y      Y    ps_6-31g*
  C9        1.949  1.900  0.770   12.000    Y    Y      Y    ps_6-31g*
  C10       1.949  1.900  0.770   12.000    Y    Y      Y    ps_6-31g*
  C11       1.949  1.900  0.770   12.000    Y    Y      Y    ps_6-31g*
  C12       1.949  1.900  0.770   12.000    Y    Y      Y    ps_6-31g*
  C13       1.949  1.900  0.770   12.000    Y    Y      Y    ps_6-31g*
  C14       1.949  1.900  0.770   12.000    Y    Y      Y    ps_6-31g*
  C15       1.949  1.900  0.770   12.000    Y    Y      Y    ps_6-31g*
  C16       1.949  1.900  0.770   12.000    Y    Y      Y    ps_6-31g*
  C17       1.949  1.900  0.770   12.000    Y    Y      Y    ps_6-31g*
  C18       1.949  1.900  0.770   12.000    Y    Y      Y    ps_6-31g*
  C19       1.949  1.900  0.770   12.000    Y    Y      Y    ps_6-31g*
  C20       1.949  1.900  0.770   12.000    Y    Y      Y    ps_6-31g*
  C21       1.949  1.900  0.770   12.000    Y    Y      Y    ps_6-31g*
  C22       1.949  1.900  0.770   12.000    Y    Y      Y    ps_6-31g*
  C23       1.949  1.900  0.770   12.000    Y    Y      Y    ps_6-31g*
  C24       1.949  1.900  0.770   12.000    Y    Y      Y    ps_6-31g*
  C25       1.949  1.900  0.770   12.000    Y    Y      Y    ps_6-31g*
  C26       1.949  1.900  0.770   12.000    Y    Y      Y    ps_6-31g*
  C27       1.949  1.900  0.770   12.000    Y    Y      Y    ps_6-31g*
  C28       1.949  1.900  0.770   12.000    Y    Y      Y    ps_6-31g*
  C29       1.949  1.900  0.770   12.000    Y    Y      Y    ps_6-31g*
  C30       1.949  1.900  0.770   12.000    Y    Y      Y    ps_6-31g*
  C31       1.949  1.900  0.770   12.000    Y    Y      Y    ps_6-31g*
  C32       1.949  1.900  0.770   12.000    Y    Y      Y    ps_6-31g*
  C33       1.949  1.900  0.770   12.000    Y    Y      Y    ps_6-31g*
  C34       1.949  1.900  0.770   12.000    Y    Y      Y    ps_6-31g*
  C35       1.949  1.900  0.770   12.000    Y    Y      Y    ps_6-31g*
  O36       1.702  1.600  0.730   15.995    Y    Y      Y    ps_6-31g*
  C37       1.949  1.900  0.770   12.000    Y    Y      Y    ps_6-31g*
  O38       1.702  1.600  0.730   15.995    Y    Y      Y    ps_6-31g*
  C39       1.949  1.900  0.770   12.000    Y    Y      Y    ps_6-31g*
  H40       1.597  1.150  0.320    1.008    Y    Y      Y    ps_6-31g*
  H41       1.597  1.150  0.320    1.008    Y    Y      Y    ps_6-31g*
  H42       1.597  1.150  0.320    1.008    Y    Y      Y    ps_6-31g*
  H43       1.597  1.150  0.320    1.008    Y    Y      Y    ps_6-31g*
  H44       1.597  1.150  0.320    1.008    Y    Y      Y    ps_6-31g*
  H45       1.597  1.150  0.320    1.008    Y    Y      Y    ps_6-31g*
  H46       1.597  1.150  0.320    1.008    Y    Y      Y    ps_6-31g*
  H47       1.597  1.150  0.320    1.008    Y    Y      Y    ps_6-31g*
  H48       1.597  1.150  0.320    1.008    Y    Y      Y    ps_6-31g*
  H49       1.597  1.150  0.320    1.008    Y    Y      Y    ps_6-31g*
  H50       1.597  1.150  0.320    1.008    Y    Y      Y    ps_6-31g*
  H51       1.597  1.150  0.320    1.008    Y    Y      Y    ps_6-31g*
  H52       1.597  1.150  0.320    1.008    Y    Y      Y    ps_6-31g*
  H53       1.597  1.150  0.320    1.008    Y    Y      Y    ps_6-31g*
  H54       1.597  1.150  0.320    1.008    Y    Y      Y    ps_6-31g*
  H55       1.597  1.150  0.320    1.008    Y    Y      Y    ps_6-31g*
  H56       1.597  1.150  0.320    1.008    Y    Y      Y    ps_6-31g*
  H57       1.597  1.150  0.320    1.008    Y    Y      Y    ps_6-31g*
  H58       1.597  1.150  0.320    1.008    Y    Y      Y    ps_6-31g*
  H59       1.597  1.150  0.320    1.008    Y    Y      Y    ps_6-31g*
  H60       1.597  1.150  0.320    1.008    Y    Y      Y    ps_6-31g*
  H61       1.597  1.150  0.320    1.008    Y    Y      Y    ps_6-31g*
  H62       1.597  1.150  0.320    1.008    Y    Y      Y    ps_6-31g*
  H63       1.597  1.150  0.320    1.008    Y    Y      Y    ps_6-31g*
  H64       1.597  1.150  0.320    1.008    Y    Y      Y    ps_6-31g*
  H65       1.597  1.150  0.320    1.008    Y    Y      Y    ps_6-31g*
  H66       1.597  1.150  0.320    1.008    Y    Y      Y    ps_6-31g*
  H67       1.597  1.150  0.320    1.008    Y    Y      Y    ps_6-31g*
  H68       1.597  1.150  0.320    1.008    Y    Y      Y    ps_6-31g*
  H69       1.597  1.150  0.320    1.008    Y    Y      Y    ps_6-31g*
  H70       1.597  1.150  0.320    1.008    Y    Y      Y    ps_6-31g*
  H71       1.597  1.150  0.320    1.008    Y    Y      Y    ps_6-31g*
  H72       1.597  1.150  0.320    1.008    Y    Y      Y    ps_6-31g*
  H73       1.597  1.150  0.320    1.008    Y    Y      Y    ps_6-31g*
  H74       1.597  1.150  0.320    1.008    Y    Y      Y    ps_6-31g*
  H75       1.597  1.150  0.320    1.008    Y    Y      Y    ps_6-31g*
  H76       1.597  1.150  0.320    1.008    Y    Y      Y    ps_6-31g*
  H77       1.597  1.150  0.320    1.008    Y    Y      Y    ps_6-31g*
  H78       1.597  1.150  0.320    1.008    Y    Y      Y    ps_6-31g*
  H79       1.597  1.150  0.320    1.008    Y    Y      Y    ps_6-31g*
  H92       1.597  1.150  0.320    1.008    Y    Y      Y    ps_6-31g*
  H93       1.597  1.150  0.320    1.008    Y    Y      Y    ps_6-31g*
  H94       1.597  1.150  0.320    1.008    Y    Y      Y    ps_6-31g*
  H95       1.597  1.150  0.320    1.008    Y    Y      Y    ps_6-31g*
  H84       1.597  1.150  0.320    1.008    Y    Y      Y    ps_6-31g*
  H85       1.597  1.150  0.320    1.008    Y    Y      Y    ps_6-31g*
  H86       1.597  1.150  0.320    1.008    Y    Y      Y    ps_6-31g*
  H87       1.597  1.150  0.320    1.008    Y    Y      Y    ps_6-31g*
  H88       1.597  1.150  0.320    1.008    Y    Y      Y    ps_6-31g*
  H89       1.597  1.150  0.320    1.008    Y    Y      Y    ps_6-31g*
  H90       1.597  1.150  0.320    1.008    Y    Y      Y    ps_6-31g*
  H91       1.597  1.150  0.320    1.008    Y    Y      Y    ps_6-31g*
  H104      1.597  1.150  0.320    1.008    Y    Y      Y    ps_6-31g*
 
  atom      formal  2spin      esp    mulk    frag
  P1           0       0        Y    0.000       0
  Pd2          2       0        Y    0.000       0
  Br3         -1       0        Y    0.000       0
  C73         -1       0        Y    0.000       0
  
  end of program pre
   
 Time(pre)  user:       1.559  user+sys:       1.559  wallclock:       1.639
  
  start of program onee
  
  smallest eigenvalue of S:    2.889E-04
  number of canonical orbitals.....          785
  end of program onee
   
 Time(onee)  user:      13.491  user+sys:      13.491  wallclock:       9.168
  
  start of program hfig
  
  initial wavefunction generated automatically from atomic wavefunctions
  Only one state below 0.010000
  Skip d-d repulsion considerations 
 
  Irreducible     Total no   No of occupied orbitals 
  representation  orbitals   Shell_1  Shell_2    ...
  No Symm          785        184
  ------------------------
  Orbital occupation/shell    1.000
 
  end of program hfig
   
 Time(hfig)  user:       1.569  user+sys:       1.569  wallclock:       1.558
  
  start of program probe
  
  end of program probe
   
 Time(probe)  user:       0.837  user+sys:       0.837  wallclock:       0.713
  
  start of program grid
  
   grid     grid set  grid #  grid sym
  ------    --------  ------  --------
  coarse        0        0        1
  medium        2        1        1
  fine          0        0        1
  ultrafine     4        2        1
  charge       -1        3        1
  gradient      4        2        1
  density       0        0        1
  DFT-fine    -11        4        1
  DFT-med.    -10        5        1
  DFT-grad    -12        6        1
  DFT-der2     -8        7        1
  DFT-cphf     -9        8        1
  LMP2-enrg     4        2        1
  LMP2-grad     2        1        1
  DFT-cphf2   -15        9        1
  PBF-dens      0        0        1
  plotting      0        0        1
  Rel-grad    -17        0        1
  
  number of gridpoints: 
     atom           P1         Pd2         Br3         C73         C74         C75         C76
  grid # 1         604         350         495          78          93          94          99
  grid # 2         433         322         479         326         318         322         389
  grid # 3           7         230         305          24          20          14           8
  grid # 4        8714        8714        8714        8714        8714        8714        8714
  grid # 5        1192        1192        1192        1192        1192        1192        1192
  grid # 6        9132        9132        9132        5922        5922        5922        5922
  grid # 7       23034       32968       11582       13950       13950       13950       13950
  grid # 8         722        1150         694         748         748         748         748
  grid # 9         366        2198         358         394         394         394         394
   
  number of gridpoints: 
     atom          C77         C78         F79         H80         H81         H82         H83
  grid # 1          93          89         581         114         113         103         109
  grid # 2         310         285         564         464         457         420         453
  grid # 3          15          22         313         388         236          75         304
  grid # 4        8714        8714        8714        8714        8714        8714        8714
  grid # 5        1192        1192        1192        1192        1192        1192        1192
  grid # 6        5922        5922        5922        5922        5922        5922        5922
  grid # 7       13950       13950       23190       15206       15206       15206       15206
  grid # 8         748         748         770         786         786         786         786
  grid # 9         394         394         420         420         420         420         420
   
  number of gridpoints: 
     atom           C3          C4          C5          C6          C7          C8          C9
  grid # 1          79          92          92          92          92          91          79
  grid # 2         329         278         281         281         283         277         322
  grid # 3           6           6           6           6           6           6           6
  grid # 4        8714        8714        8714        8714        8714        8714        8714
  grid # 5        1192        1192        1192        1192        1192        1192        1192
  grid # 6        5922        5922        5922        5922        5922        5922        5922
  grid # 7       13950       13950       13950       13950       13950       13950       13950
  grid # 8         748         748         748         748         748         748         748
  grid # 9         394         394         394         394         394         394         394
   
  number of gridpoints: 
     atom          C10         C11         C12         C13         C14         C15         C16
  grid # 1          90          92          92          92          90          90          98
  grid # 2         280         280         277         283         278         381         352
  grid # 3           6           6           6           6           6           7           6
  grid # 4        8714        8714        8714        8714        8714        8714        8714
  grid # 5        1192        1192        1192        1192        1192        1192        1192
  grid # 6        5922        5922        5922        5922        5922        5922        5922
  grid # 7       13950       13950       13950       13950       13950       13950       13950
  grid # 8         748         748         748         748         748         748         748
  grid # 9         394         394         394         394         394         394         394
   
  number of gridpoints: 
     atom          C17         C18         C19         C20         C21         C22         C23
  grid # 1          92          96          95          93          97          97          92
  grid # 2         345         326         326         344         350         362         320
  grid # 3          15          32          32          14           9          12          20
  grid # 4        8714        8714        8714        8714        8714        8714        8714
  grid # 5        1192        1192        1192        1192        1192        1192        1192
  grid # 6        5922        5922        5922        5922        5922        5922        5922
  grid # 7       13950       13950       13950       13950       13950       13950       13950
  grid # 8         748         748         748         748         748         748         748
  grid # 9         394         394         394         394         394         394         394
   
  number of gridpoints: 
     atom          C24         C25         C26         C27         C28         C29         C30
  grid # 1          99          92          98          91          82          81          83
  grid # 2         354         324         360         308         240         243         238
  grid # 3          15          17          10           6           6           6           6
  grid # 4        8714        8714        8714        8714        8714        8714        8714
  grid # 5        1192        1192        1192        1192        1192        1192        1192
  grid # 6        5922        5922        5922        5922        5922        5922        5922
  grid # 7       13950       13950       13950       13950       13950       13950       13950
  grid # 8         748         748         748         748         748         748         748
  grid # 9         394         394         394         394         394         394         394
   
  number of gridpoints: 
     atom          C31         C32         C33         C34         C35         O36         C37
  grid # 1          91          80          81          91          81         115          76
  grid # 2         308         246         247         304         246         434         226
  grid # 3           6           6           6           6           6          11           6
  grid # 4        8714        8714        8714        8714        8714        8714        8714
  grid # 5        1192        1192        1192        1192        1192        1192        1192
  grid # 6        5922        5922        5922        5922        5922        5922        5922
  grid # 7       13950       13950       13950       13950       13950       23382       13950
  grid # 8         748         748         748         748         748         774         748
  grid # 9         394         394         394         394         394         416         394
   
  number of gridpoints: 
     atom          O38         C39         H40         H41         H42         H43         H44
  grid # 1         119          76          99         106         103         112         110
  grid # 2         453         229         423         439         414         457         447
  grid # 3          44           6          71         148          39         320         232
  grid # 4        8714        8714        8714        8714        8714        8714        8714
  grid # 5        1192        1192        1192        1192        1192        1192        1192
  grid # 6        5922        5922        5922        5922        5922        5922        5922
  grid # 7       23382       13950       15206       15206       15206       15206       15206
  grid # 8         774         748         786         786         786         786         786
  grid # 9         416         394         420         420         420         420         420
   
  number of gridpoints: 
     atom          H45         H46         H47         H48         H49         H50         H51
  grid # 1         112         110         112         110         102         106          99
  grid # 2         458         454         458         451         431         436         413
  grid # 3         331         251         328         247         102         110          63
  grid # 4        8714        8714        8714        8714        8714        8714        8714
  grid # 5        1192        1192        1192        1192        1192        1192        1192
  grid # 6        5922        5922        5922        5922        5922        5922        5922
  grid # 7       15206       15206       15206       15206       15206       15206       15206
  grid # 8         786         786         786         786         786         786         786
  grid # 9         420         420         420         420         420         420         420
   
  number of gridpoints: 
     atom          H52         H53         H54         H55         H56         H57         H58
  grid # 1          96         102         110         111         110         112         110
  grid # 2         403         426         452         452         455         459         451
  grid # 3          33         100         243         269         241         334         251
  grid # 4        8714        8714        8714        8714        8714        8714        8714
  grid # 5        1192        1192        1192        1192        1192        1192        1192
  grid # 6        5922        5922        5922        5922        5922        5922        5922
  grid # 7       15206       15206       15206       15206       15206       15206       15206
  grid # 8         786         786         786         786         786         786         786
  grid # 9         420         420         420         420         420         420         420
   
  number of gridpoints: 
     atom          H59         H60         H61         H62         H63         H64         H65
  grid # 1         112          97         103         112         113         100         100
  grid # 2         458         431         433         447         446         407         413
  grid # 3         325          65         140         259         261          55          49
  grid # 4        8714        8714        8714        8714        8714        8714        8714
  grid # 5        1192        1192        1192        1192        1192        1192        1192
  grid # 6        5922        5922        5922        5922        5922        5922        5922
  grid # 7       15206       15206       15206       15206       15206       15206       15206
  grid # 8         786         786         786         786         786         786         786
  grid # 9         420         420         420         420         420         420         420
   
  number of gridpoints: 
     atom          H66         H67         H68         H69         H70         H71         H72
  grid # 1         105         107         107         110         105         108         102
  grid # 2         429         446         445         455         437         444         427
  grid # 3          87         249         220         320         214         237          79
  grid # 4        8714        8714        8714        8714        8714        8714        8714
  grid # 5        1192        1192        1192        1192        1192        1192        1192
  grid # 6        5922        5922        5922        5922        5922        5922        5922
  grid # 7       15206       15206       15206       15206       15206       15206       15206
  grid # 8         786         786         786         786         786         786         786
  grid # 9         420         420         420         420         420         420         420
   
  number of gridpoints: 
     atom          H73         H74         H75         H76         H77         H78         H79
  grid # 1         104         108         109         107         105         108          97
  grid # 2         439         453         448         429         434         446         402
  grid # 3         230         324         255         117         188         243          52
  grid # 4        8714        8714        8714        8714        8714        8714        8714
  grid # 5        1192        1192        1192        1192        1192        1192        1192
  grid # 6        5922        5922        5922        5922        5922        5922        5922
  grid # 7       15206       15206       15206       15206       15206       15206       15206
  grid # 8         786         786         786         786         786         786         786
  grid # 9         420         420         420         420         420         420         420
   
  number of gridpoints: 
     atom          H92         H93         H94         H95         H84         H85         H86
  grid # 1         110         105         110          91         109         101         109
  grid # 2         456         435         453         384         446         423         451
  grid # 3         319         200         300          15         263         123         270
  grid # 4        8714        8714        8714        8714        8714        8714        8714
  grid # 5        1192        1192        1192        1192        1192        1192        1192
  grid # 6        5922        5922        5922        5922        5922        5922        5922
  grid # 7       15206       15206       15206       15206       15206       15206       15206
  grid # 8         786         786         786         786         786         786         786
  grid # 9         420         420         420         420         420         420         420
   
  number of gridpoints: 
     atom          H87         H88         H89         H90         H91        H104       total
  grid # 1         110         111         112         112         111         111       12027
  grid # 2         458         451         449         463         451         449       40174
  grid # 3         334         304         315         367         314         304       13453
  grid # 4        8714        8714        8714        8714        8714        8714      906256
  grid # 5        1192        1192        1192        1192        1192        1192      123968
  grid # 6        5922        5922        5922        5922        5922        5922      625518
  grid # 7       15206       15206       15206       15206       15206       15206     1576230
  grid # 8         786         786         786         786         786         786       80354
  grid # 9         420         420         420         420         420         420       44268
   
  end of program grid
   
 Time(grid)  user:     793.909  user+sys:     793.909  wallclock:     400.950
  
  start of program rwr
  
  end of program rwr
   
 Time(rwr)  user:      26.432  user+sys:      26.432  wallclock:      33.496
  
  start of program scf
  
 number of electrons..........        368
 number of alpha electrons....        184
 number of beta electrons.....        184
 number of orbitals, total....        785
 number of doubly-occ'd orbs..        184
 number of open shell orbs....          0
 number of occupied orbitals..        184
 number of virtual orbitals...        601
 number of hamiltonians.......          1
 number of shells.............          1
 SCF type: DFT=Becke_3_Parameter/HF+Slater+Becke88+PW91+PW-GGAIIC (B3PW91-D3)
 Energy computed using pseudospectral method.
 Convergence Criterion:
    Energy (econv):       1.00E-05
    RMS density (dconv):  5.00E-06
  
       i  u  d  i  g                   
       t  p  i  c  r                                 RMS    maximum
       e  d  i  u  i                       energy  density   DIIS  
       r  t  s  t  d       total energy    change  change    error 
  
etot    1  N  N  5  M   -2321.62168013761           1.8E-03  1.9E-01
etot    2  Y  Y  6  M   -2325.67818498815  4.1E+00  2.8E-03  1.1E-01
etot    3  Y  Y  6  M   -2326.83594093668  1.2E+00  1.3E-03  5.1E-02
etot    4  N  Y  2  U   -2327.24770943307  4.1E-01  7.5E-04  6.1E-02
etot    5  Y  Y  6  M   -2327.41752719813  1.7E-01  4.3E-04  3.8E-02
etot    6  N  Y  2  U   -2327.43471813504  1.7E-02  5.5E-04  2.2E-02
etot    7  Y  Y  6  M   -2327.43169224481 -3.0E-03  1.5E-04  7.5E-03
etot    8  Y  Y  6  M   -2327.44161205036  9.9E-03  5.1E-05  2.0E-03
etot    9  N  Y  2  U   -2327.44364658450  2.0E-03  1.3E-05  3.6E-04
etot   10  N  Y  2  U   -2327.44366907403  2.2E-05  5.2E-06  1.1E-04
etot   11  N  Y  2  U   -2327.44367407372  5.0E-06  2.4E-06  4.2E-05
etot   12  N  N  2  U   -2327.44367522496  1.2E-06  0.0E+00  0.0E+00
 
  Computing the dispersion energy correction and its gradients...
  
  
 Energy components, in hartrees:
   (A)  Nuclear repulsion............    7535.32656909007
   (E)  Total one-electron terms.....  -18244.24677482377
   (F)    Electron-nuclear...........  -20469.27960878940
   (H)    Kinetic....................    2225.03283396563
   (I)  Total two-electron terms.....    8381.47653050874
   (J)    Coulomb....................    8691.15091079981
   (K)    Exchange+Correlation.......    -309.67438029107
   (L)  Electronic energy............   -9862.77024431503  (E+I)
   (N0) D3 correction................      -0.20878287279
   (N)  Total energy.................   -2327.65245809775  (A+L+N0)
   (O)  Gas phase energy.............   -2327.65245809775
  
 SCFE: SCF energy: DFT(b3pw91-d3)     -2327.65245809775 hartrees   iterations:  12
  
 
 HOMO energy:    -0.18148
 LUMO energy:    -0.08323
 
  Orbital energies (hartrees): 
   -77.05707   -24.66787   -19.18634   -19.17699   -10.25713   -10.25208
   -10.24886   -10.24180   -10.23001   -10.20777   -10.20328   -10.19696
   -10.19603   -10.19457   -10.19382   -10.18722   -10.18395   -10.18159
   -10.18050   -10.17358   -10.17013   -10.16822   -10.16678   -10.16434
   -10.16390   -10.16368   -10.16318   -10.16247   -10.16245   -10.16199
   -10.15996   -10.15946   -10.15920   -10.15859   -10.15761   -10.15475
   -10.15418   -10.15379   -10.15371   -10.15249   -10.15151   -10.15039
   -10.14619   -10.14397   -10.13845    -6.56165    -4.71984    -4.71877
    -4.71590    -3.33080    -2.06902    -2.05511    -2.03137    -1.19916
    -1.09349    -1.08189    -0.89151    -0.87347    -0.85744    -0.83877
    -0.82787    -0.81828    -0.81270    -0.79461    -0.79059    -0.77284
    -0.75857    -0.74937    -0.74239    -0.73969    -0.73773    -0.73120
    -0.73033    -0.72273    -0.71574    -0.69551    -0.68443    -0.67751
    -0.67443    -0.67325    -0.66633    -0.63830    -0.62999    -0.61261
    -0.60882    -0.60246    -0.59907    -0.59858    -0.59744    -0.59488
    -0.58652    -0.56516    -0.55575    -0.54748    -0.54428    -0.54307
    -0.53844    -0.53009    -0.52553    -0.52231    -0.50311    -0.49814
    -0.49244    -0.48220    -0.47873    -0.47260    -0.46881    -0.46662
    -0.46138    -0.45722    -0.44929    -0.44726    -0.44617    -0.44399
    -0.44075    -0.43842    -0.43664    -0.43440    -0.43019    -0.42949
    -0.42765    -0.42677    -0.42638    -0.42487    -0.41887    -0.41549
    -0.41389    -0.40788    -0.40705    -0.40481    -0.39192    -0.38680
    -0.38521    -0.38246    -0.37897    -0.37727    -0.37514    -0.37473
    -0.37425    -0.37080    -0.36936    -0.36414    -0.36347    -0.36264
    -0.36120    -0.35745    -0.35436    -0.35230    -0.34972    -0.34406
    -0.34053    -0.33931    -0.33821    -0.33557    -0.33268    -0.32970
    -0.32636    -0.32522    -0.32437    -0.32157    -0.31676    -0.31638
    -0.31253    -0.31087    -0.30754    -0.30489    -0.29785    -0.29573
    -0.29502    -0.28931    -0.28397    -0.28187    -0.27095    -0.26755
    -0.25602    -0.24988    -0.24511    -0.23511    -0.22355    -0.22202
    -0.21135    -0.19831    -0.19121    -0.18148    -0.08323    -0.04670
    -0.03019    -0.01955    -0.00434     0.02712     0.03074     0.03933
     0.05556     0.05852
 
  end of program scf
   
 Time(scf)  user:     761.109  user+sys:     761.109  wallclock:     401.624
  
  start of program der1a
  
  end of program der1a
   
 Time(der1a)  user:      42.747  user+sys:      42.747  wallclock:      22.222
  
  start of program rwr
  
  end of program rwr
   
 Time(rwr)  user:      31.998  user+sys:      31.998  wallclock:      37.136
  
  start of program der1b
  
   
  forces (hartrees/bohr) : total     
   
 atom  label           x              y              z
 ---- --------   -------------  -------------  -------------
    1 P1          2.384473E-02  -7.293330E-03   4.689536E-02
    2 Pd2        -6.818034E-03  -3.163866E-02  -2.853813E-03
    3 Br3         2.466255E-03  -3.292556E-03   1.031471E-02
    4 C73         1.187238E-02   2.103862E-02   7.725005E-03
    5 C74        -2.175721E-03  -3.186597E-03  -2.392216E-03
    6 C75         3.310885E-03   1.259143E-03   1.047787E-03
    7 C76        -4.279645E-03   3.041450E-02   1.478185E-02
    8 C77         2.098962E-02   7.543771E-02  -2.229765E-02
    9 C78         1.446622E-02   6.869330E-02   7.975222E-03
   10 F79        -1.847788E-03  -2.111372E-03  -2.561656E-03
   11 H80        -8.031631E-04  -3.038153E-04  -1.117750E-04
   12 H81        -5.352744E-05   4.032454E-03   5.009354E-04
   13 H82         7.667521E-03   1.245384E-02   5.302960E-03
   14 H83        -2.249051E-04   5.271850E-03   4.352471E-04
   15 C3          1.372084E-02   3.047656E-03  -1.868412E-02
   16 C4         -1.051001E-02  -1.273535E-02  -4.109042E-03
   17 C5          4.093534E-03  -4.291242E-03  -3.426459E-03
   18 C6          9.721479E-03   4.603557E-04  -3.505298E-03
   19 C7          4.624599E-03   3.395819E-03  -1.756028E-04
   20 C8         -6.172289E-03   1.291262E-02   1.493484E-02
   21 C9         -2.072338E-02   3.521467E-02  -3.626411E-02
   22 C10        -6.002745E-03  -7.821475E-03   3.084433E-03
   23 C11        -5.944566E-03   1.599847E-03   1.749925E-04
   24 C12        -4.958089E-03   8.206766E-03  -1.950035E-03
   25 C13         9.538186E-04   4.829536E-03  -2.498341E-03
   26 C14         1.426454E-02   4.343707E-03   4.800905E-03
   27 C15        -3.076560E-03   1.851644E-03  -1.379391E-02
   28 C16        -2.801688E-03  -2.130954E-03  -4.345575E-02
   29 C17        -1.868191E-03  -1.393202E-02  -2.705264E-02
   30 C18        -2.198945E-03  -1.598455E-03  -5.698152E-03
   31 C19        -2.710919E-03  -2.002523E-03  -6.788836E-03
   32 C20        -1.718091E-02  -2.385513E-02  -1.861838E-02
   33 C21        -5.674331E-05   1.831660E-02   5.298339E-02
   34 C22        -3.363740E-03   5.026519E-03   1.390957E-02
   35 C23        -8.771987E-03  -1.675357E-02  -7.519798E-03
   36 C24        -4.822850E-03  -2.110880E-02  -4.114633E-03
   37 C25        -5.075416E-03  -9.787097E-03   1.277619E-03
   38 C26         1.269955E-02   2.522742E-04   1.532212E-02
   39 C27         1.929765E-03  -9.515542E-03  -1.140225E-02
   40 C28        -4.472156E-03  -1.446036E-02  -1.731905E-04
   41 C29         7.311922E-03   5.065056E-03   2.400419E-03
   42 C30        -7.955056E-03  -1.083919E-02  -4.348643E-04
   43 C31        -4.223110E-03   9.792813E-03  -8.924005E-03
   44 C32         3.351061E-03   1.080633E-02   6.881238E-03
   45 C33        -5.571190E-03  -4.278434E-03   2.930776E-03
   46 C34        -1.054824E-02  -7.284732E-02   2.204222E-03
   47 C35         5.963265E-03  -4.729397E-03   5.269170E-03
   48 O36         1.513973E-02   5.482353E-03   1.950067E-02
   49 C37        -5.422609E-03  -8.540367E-03  -4.463137E-04
   50 O38         8.581603E-03   1.328841E-02   2.607205E-02
   51 C39         2.487550E-03   5.279030E-03  -8.676895E-03
   52 H40         8.694360E-04  -7.124641E-03   3.795068E-03
   53 H41         3.626496E-03   6.744786E-03   4.931687E-03
   54 H42        -3.435953E-03   6.988974E-03  -8.044840E-03
   55 H43        -5.662699E-03   9.821532E-03   1.282874E-03
   56 H44         1.683069E-03  -4.126836E-03   8.727721E-03
   57 H45        -8.521725E-03  -2.228001E-03   6.983046E-03
   58 H46        -2.632946E-03   4.737877E-03  -8.490368E-03
   59 H47        -9.066465E-03  -4.953275E-03  -6.439176E-03
   60 H48         1.633248E-03  -4.859525E-03   7.953486E-03
   61 H49         2.791016E-03  -1.124636E-02  -7.227567E-04
   62 H50        -3.658817E-03   3.795558E-03  -7.186771E-03
   63 H51        -1.931764E-03   4.874888E-03   1.133423E-02
   64 H52         4.732750E-03   2.920455E-03  -1.938063E-02
   65 H53         4.708994E-03   8.255276E-03   6.013401E-03
   66 H54         1.425281E-04   1.294724E-03   9.266547E-03
   67 H55         1.059021E-02  -2.094545E-03  -4.053462E-03
   68 H56         6.642792E-04  -2.144153E-03  -1.024811E-02
   69 H57         5.186971E-03  -7.693200E-03   6.108053E-03
   70 H58        -9.634842E-04   1.543840E-03   8.548689E-03
   71 H59        -3.375791E-03  -1.127547E-02  -2.987740E-03
   72 H60        -1.631132E-05  -7.976054E-04  -1.762686E-02
   73 H61        -8.143962E-03  -1.300108E-03   5.878180E-03
   74 H62         5.228885E-03   5.739191E-03   7.453731E-03
   75 H63         2.521847E-03   1.929501E-03   9.776964E-03
   76 H64         3.307559E-03  -4.675817E-03  -1.071974E-02
   77 H65        -5.940861E-03   5.405673E-03  -1.172159E-02
   78 H66         1.230354E-04   7.583865E-03   8.801722E-03
   79 H67        -1.082904E-04   4.540749E-03  -9.555414E-03
   80 H68         9.386128E-03   3.816967E-03   5.292418E-03
   81 H69        -6.650887E-03   6.671315E-03   4.922152E-03
   82 H70        -4.802543E-03   4.457941E-03  -8.485134E-03
   83 H71        -9.388587E-03   4.131505E-03   3.905660E-03
   84 H72        -1.733430E-03  -9.469772E-03  -8.853097E-04
   85 H73         4.075021E-03   6.890152E-06  -9.700431E-03
   86 H74         9.661330E-03  -2.703193E-03   5.379552E-03
   87 H75         1.329560E-03   9.275121E-03  -1.695247E-03
   88 H76         2.509981E-03  -8.457043E-03   9.178909E-03
   89 H77        -3.172465E-05  -3.331710E-03  -9.618519E-03
   90 H78         7.779965E-03  -6.615978E-03   3.859801E-03
   91 H79        -1.402495E-02  -1.078971E-02   1.041896E-02
   92 H92         2.394605E-04   9.015001E-03   2.238502E-03
   93 H93         7.105581E-03  -7.618049E-03   6.003974E-03
   94 H94         9.087433E-04   8.002541E-04  -1.058672E-02
   95 H95        -1.333026E-02  -8.216204E-02  -7.261338E-03
   96 H84        -1.584137E-04   7.359554E-03   3.525158E-03
   97 H85        -1.163161E-02  -5.403463E-03   9.316084E-03
   98 H86        -1.096711E-03   1.650281E-03  -1.115658E-02
   99 H87        -8.002525E-03  -1.001933E-02   6.365762E-03
  100 H88         1.071655E-02  -4.300702E-03  -2.480304E-03
  101 H89        -7.134475E-03   9.347201E-03  -2.446042E-03
  102 H90         4.726234E-03   1.108240E-02  -7.796671E-03
  103 H91         7.620027E-03  -9.308281E-03   8.969667E-04
  104 H104       -1.086380E-02   2.799150E-03   1.739749E-03
 -------------   -------------  -------------  -------------
     total        3.865955E-04   6.115465E-04  -5.949604E-04
   
  end of program der1b
   
 Time(der1b)  user:     257.719  user+sys:     257.719  wallclock:     134.504
  
  start of program geopt
  
 ----------------------------------------------------------------------------
  Geometry optimization step  1
  Total energy:     -2327.65245809775 hartrees
 ----------------------------------------------------------------------------
  
  
  Level shifts adjusted to satisfy step-size constraints
   Step size:    0.3003606
   Cos(theta):   0.1607491
   Final level shift:  -6.7524722E-01
  
  gradient maximum:        1.8054E+00 .  (  2.2500E-03 )
  gradient rms:            2.5423E-01 .  (  1.5000E-03 )
  displacement maximum:    6.5263E-02 .  (  9.0000E-03 )
  displacement rms:        1.2861E-02 .  (  6.0000E-03 )
  
  predicted energy change:  -1.2811E-01
  step size:     0.23853
  trust radius:  0.30000
  
  molecular structure not yet converged...
  
  center of mass moved by:
     x:     1.4302E-01     y:     4.0071E-02     z:     1.1998E-02
  
  new geometry: 
                                   angstroms
  atom               x                 y                 z
  P1           -0.0481381988      0.1172209549     -0.0277670844 
  Pd2           0.0886181751      0.0718533242      2.3625069821 
  Br3           0.6350395536      2.4234063693      2.9988204675 
  C73           0.4263747518     -0.4634191229      7.0809551152 
  C74           1.5802220661     -0.5792425095      6.3192878493 
  C75           1.4685277058     -0.5183245107      4.9277396995 
  C76           0.2228289113     -0.3244206725      4.3135589976 
  C77          -0.9089048902     -0.2087629473      5.1142376317 
  C78          -0.8224765711     -0.2908317524      6.5026813088 
  F79           0.5175628373     -0.5253156533      8.4292588349 
  H80           2.5365749681     -0.7307527924      6.8126846357 
  H81           2.3681559050     -0.6195758217      4.3233329296 
  H82          -1.8863492789     -0.0819268998      4.6594323719 
  H83          -1.7023117702     -0.2140974707      7.1376334326 
  C3            1.6476566132      0.0571777703     -0.7805025543 
  C4            2.2206591663     -1.3424919796     -1.0712788049 
  C5            3.5059205678     -1.2412179546     -1.9042942054 
  C6            4.5643287683     -0.4068953067     -1.1697791675 
  C7            4.0083083165      0.9753112326     -0.8008151846 
  C8            2.7087652455      0.8516808697      0.0068063372 
  C9           -0.8527163609      1.5409588840     -0.7670870127 
  C10          -2.3110500742      1.6461038044     -0.3001953674 
  C11          -3.0681646040      2.8000615587     -0.9653326579 
  C12          -2.3550612372      4.1312958938     -0.7118247359 
  C13          -0.9102976431      4.0542481881     -1.2164399419 
  C14          -0.1500401842      2.8948541160     -0.5563779732 
  C15          -0.9925579400     -1.3188498436     -0.6292296623 
  C16          -1.7158770694     -2.2409744340      0.1968677906 
  C17          -2.5078590496     -3.2245829859     -0.4437417489 
  C18          -2.5965197727     -3.2570112906     -1.8398653752 
  C19          -1.9161074160     -2.3379628931     -2.6254891468 
  C20          -1.1111286238     -1.3576858036     -2.0403657866 
  C21          -1.7403944710     -2.3609291823      1.6449488595 
  C22          -2.9127051926     -2.0141625165      2.3825943934 
  C23          -2.9295075331     -2.1615032330      3.7751184322 
  C24          -1.8566226956     -2.6678678184      4.5119939147 
  C25          -0.7301004847     -3.0443888526      3.7753781207 
  C26          -0.6406835804     -2.8993167726      2.3779138685 
  C27           0.5745256095     -3.5294423809      1.7181943412 
  C28           0.3885538655     -5.0595373089      1.7195912369 
  C29           1.9137556520     -3.1619457229      2.3806597659 
  C30          -5.4415765360     -2.2029215106      2.1000624426 
  C31          -4.1728931971     -1.3801933695      1.8048786428 
  C32          -4.3910333922      0.0249111071      2.4007774453 
  C33          -3.2729086953     -3.3143195967      6.4990662719 
  C34          -1.9234375698     -2.7511392291      6.0269886226 
  C35          -0.7733163354     -3.5784495024      6.6206832566 
  O36          -0.4390867627     -0.4654199399     -2.8142366854 
  C37          -0.4057303853     -0.5148017182     -4.2242250121 
  O38          -3.1215194658     -4.1718037825      0.3163415007 
  C39          -3.7506327067     -5.3117950145     -0.2302172835 
  H40           1.5307663504      0.6045038457     -1.7394560650 
  H41           1.4853138152     -1.9802658866     -1.6030379048 
  H42           2.4522095887     -1.8621495231     -0.1203364647 
  H43           3.9010691023     -2.2583482210     -2.1181079658 
  H44           3.2772550957     -0.7687816932     -2.8846226515 
[...]
    H47      X     0.00007  -0.00037   0.00002  -0.00013   0.00016  -0.00009
    H47      Y     0.00005  -0.00023  -0.00002  -0.00008   0.00009  -0.00004
    H47      Z     0.00006  -0.00025  -0.00003  -0.00008   0.00010  -0.00004
    H48      X    -0.00000  -0.00001  -0.00001  -0.00001  -0.00000   0.00001
    H48      Y     0.00002   0.00010   0.00007   0.00006  -0.00000  -0.00004
    H48      Z    -0.00004  -0.00014  -0.00011  -0.00008  -0.00001   0.00008
    H49      X     0.00002   0.00004  -0.00003  -0.00002  -0.00007   0.00002
    H49      Y    -0.00011  -0.00004   0.00002   0.00010   0.00020  -0.00001
    H49      Z     0.00000   0.00000   0.00001   0.00000   0.00002  -0.00001
    H50      X    -0.00003  -0.00001  -0.00003  -0.00000  -0.00000   0.00001
    H50      Y     0.00005   0.00021   0.00001   0.00004  -0.00007  -0.00002
    H50      Z    -0.00008  -0.00029  -0.00004  -0.00012   0.00012   0.00003
    H51      X    -0.00003   0.00005  -0.00009   0.00002  -0.00004   0.00002
    H51      Y     0.00004  -0.00026   0.00002  -0.00001   0.00031   0.00009
    H51      Z    -0.00005  -0.00007  -0.00023   0.00002   0.00015   0.00021
    H52      X     0.00001  -0.00001  -0.00001   0.00001  -0.00003   0.00002
    H52      Y    -0.00002   0.00001  -0.00003   0.00001  -0.00006   0.00002
    H52      Z    -0.00001  -0.00009  -0.00012  -0.00001  -0.00016   0.00006
    H53      X    -0.00002  -0.00001   0.00004  -0.00012   0.00003  -0.00001
    H53      Y    -0.00004   0.00000   0.00001  -0.00015   0.00002   0.00004
    H53      Z     0.00000  -0.00001   0.00001  -0.00001   0.00001  -0.00000
    H54      X    -0.00002  -0.00000  -0.00010   0.00000   0.00004   0.00006
    H54      Y    -0.00001  -0.00000  -0.00006   0.00000   0.00003   0.00005
    H54      Z    -0.00006   0.00002  -0.00026   0.00002   0.00009   0.00022
    H55      X    -0.00012   0.00014   0.00004   0.00003  -0.00026   0.00011
    H55      Y     0.00003  -0.00005  -0.00000  -0.00001   0.00008  -0.00004
    H55      Z     0.00007  -0.00008  -0.00004  -0.00002   0.00014  -0.00007
    H56      X    -0.00000  -0.00001  -0.00003  -0.00001   0.00006   0.00002
    H56      Y    -0.00002  -0.00001  -0.00004   0.00000   0.00007   0.00003
    H56      Z    -0.00002  -0.00004  -0.00010  -0.00001   0.00020   0.00006
    H57      X    -0.00009   0.00009  -0.00004   0.00006  -0.00007   0.00009
    H57      Y     0.00013  -0.00014   0.00007  -0.00009   0.00011  -0.00015
    H57      Z    -0.00008   0.00008  -0.00003   0.00005  -0.00005   0.00008
    H58      X    -0.00002  -0.00001  -0.00007   0.00000   0.00002   0.00004
    H58      Y    -0.00001   0.00001  -0.00005   0.00001   0.00001   0.00004
    H58      Z    -0.00005  -0.00004  -0.00026   0.00000   0.00010   0.00015
    H59      X     0.00007  -0.00015  -0.00002  -0.00008   0.00011  -0.00005
    H59      Y     0.00010  -0.00025   0.00002  -0.00012   0.00021  -0.00012
    H59      Z    -0.00000   0.00002  -0.00002   0.00001  -0.00002   0.00001
    H60      X     0.00004  -0.00004  -0.00002  -0.00002   0.00007  -0.00002
    H60      Y     0.00002  -0.00004  -0.00003  -0.00002   0.00006  -0.00001
    H60      Z     0.00013  -0.00011  -0.00003  -0.00006   0.00013  -0.00005
    H61      X     0.00004  -0.00009   0.00024  -0.00012  -0.00006  -0.00010
    H61      Y    -0.00001   0.00003  -0.00005   0.00003   0.00001   0.00003
    H61      Z    -0.00003   0.00006  -0.00013   0.00008   0.00005   0.00006
    H62      X     0.00011   0.00053   0.33679   0.01733   0.00234   0.34785
    H62      Y     0.00017   0.00084   0.53106   0.02731   0.00369   0.54894
    H62      Z     0.00006   0.00033   0.21003   0.01086   0.00143   0.21241
    H63      X     0.00003  -0.00036  -0.10426  -0.00589   0.00045   0.09863
    H63      Y     0.00003  -0.00043  -0.12792  -0.00724   0.00054   0.12022
    H63      Z     0.00020  -0.00243  -0.66428  -0.03762   0.00306   0.64330
    H64      X     0.00497  -0.00174   0.00055   0.00457  -0.01297   0.00067
    H64      Y    -0.00167   0.00063  -0.00014  -0.00200   0.00416  -0.00022
    H64      Z    -0.00329   0.00100  -0.00044  -0.00195   0.00819  -0.00046
    H65      X    -0.00229   0.05726   0.03658  -0.67824  -0.00083  -0.00169
    H65      Y     0.00171  -0.04346  -0.02800   0.51996   0.00063   0.00132
    H65      Z    -0.00137   0.03478   0.02220  -0.41237  -0.00047  -0.00106
    H66      X    -0.00001   0.00015   0.00005  -0.00204  -0.00000   0.00003
    H66      Y    -0.00001  -0.00011   0.00030   0.00275  -0.00006   0.00008
    H66      Z     0.00007  -0.00025  -0.00089  -0.00347   0.00023  -0.00015
    H67      X    -0.00000   0.00020   0.00019  -0.00285   0.00002   0.00001
    H67      Y    -0.00001  -0.00060  -0.00056   0.01063  -0.00007   0.00002
    H67      Z     0.00001   0.00130   0.00120  -0.02158   0.00013   0.00002
    H68      X     0.00004  -0.00010   0.00065  -0.00723  -0.00007   0.00004
    H68      Y     0.00002   0.00000   0.00023  -0.00240  -0.00003  -0.00005
    H68      Z     0.00002  -0.00006   0.00024  -0.00284  -0.00004  -0.00004
    H69      X     0.00007  -0.00013  -0.00008   0.00270  -0.00010  -0.00033
    H69      Y    -0.00004   0.00000   0.00002  -0.00058   0.00006   0.00016
    H69      Z    -0.00005   0.00012   0.00008  -0.00223   0.00008   0.00023
    H70      X     0.00008  -0.00024   0.00010  -0.00252  -0.00001  -0.00002
    H70      Y    -0.00019   0.00034  -0.00035   0.00730   0.00008   0.00003
    H70      Z     0.00057  -0.00169   0.00098  -0.02169  -0.00007  -0.00014
    H71      X    -0.00046   0.00279  -0.00009   0.00164  -0.00001  -0.00020
    H71      Y     0.00023  -0.00123   0.00005  -0.00134  -0.00003   0.00008
    H71      Z     0.00039  -0.00232   0.00009  -0.00172  -0.00003   0.00013
    H72      X     0.00009  -0.00056   0.00001   0.00041  -0.00003   0.00004
    H72      Y     0.00194  -0.01232  -0.00007   0.00523  -0.00004   0.00019
    H72      Z     0.00017  -0.00166   0.00002  -0.00000   0.00008   0.00000
    H73      X     0.00001   0.00007   0.00000  -0.00031  -0.00037  -0.00002
    H73      Y    -0.00001   0.00003   0.00004  -0.00015  -0.00021  -0.00000
    H73      Z    -0.00001  -0.00017   0.00005   0.00066   0.00082   0.00010
    H74      X    -0.00024  -0.00007  -0.00007   0.00028   0.00044   0.00034
    H74      Y     0.00014   0.00005   0.00008  -0.00024  -0.00027  -0.00023
    H74      Z    -0.00016  -0.00006  -0.00006   0.00024   0.00029   0.00019
    H75      X     0.00004  -0.00003  -0.00006  -0.00005  -0.00018  -0.00010
    H75      Y    -0.00008   0.00012   0.00036   0.00023   0.00047   0.00010
    H75      Z    -0.00004   0.00007   0.00017   0.00012   0.00026   0.00001
    H76      X    -0.00005   0.00003   0.00030  -0.00015  -0.00004   0.00003
    H76      Y     0.00003   0.00006   0.00025  -0.00019  -0.00020   0.00008
    H76      Z     0.00013  -0.00023  -0.00100   0.00075   0.00037  -0.00012
    H77      X    -0.00034  -0.00006   0.00007  -0.00025   0.00071   0.00002
    H77      Y    -0.00015  -0.00004   0.00001  -0.00005   0.00019   0.00000
    H77      Z     0.00010   0.00017  -0.00024   0.00066   0.00191  -0.00011
    H78      X    -0.00148   0.00024  -0.00001   0.00032   0.00162   0.00019
    H78      Y     0.00111  -0.00015  -0.00001  -0.00024  -0.00148  -0.00015
    H78      Z    -0.00115   0.00019  -0.00000   0.00027   0.00144   0.00012
    H79      X    -0.00610   0.00083   0.00017  -0.00018   0.00935   0.00013
    H79      Y    -0.00394   0.00056   0.00014  -0.00012   0.00543   0.00012
    H79      Z    -0.00098   0.00009   0.00002   0.00001   0.00319  -0.00000
    H92      X    -0.00014   0.00002  -0.00003  -0.00034  -0.00012  -0.00002
    H92      Y     0.00083   0.00014   0.00007   0.00216   0.00042   0.00010
    H92      Z     0.00047   0.00008   0.00002   0.00140   0.00025   0.00006
    H93      X    -0.00018  -0.00047   0.00019  -0.00231  -0.00080   0.00000
    H93      Y     0.00006   0.00017  -0.00011   0.00108   0.00036  -0.00001
    H93      Z    -0.00015  -0.00021   0.00007  -0.00092  -0.00039   0.00001
    H94      X    -0.00015   0.00004  -0.00004   0.00070  -0.00003   0.00005
    H94      Y    -0.00026   0.00000  -0.00005   0.00078  -0.00005   0.00005
    H94      Z     0.00075  -0.00011   0.00019  -0.00213   0.00008  -0.00016
    H95      X    -0.00017  -0.00051  -0.00004   0.00071  -0.00004  -0.00000
    H95      Y     0.00124   0.00108   0.00008  -0.00079   0.00132   0.00002
    H95      Z     0.00073   0.00084   0.00011  -0.00207   0.00076  -0.00002
    H84      X    -0.00023   0.00029   0.00021  -0.00423  -0.00006  -0.00003
    H84      Y     0.00026  -0.00123  -0.00068   0.01365   0.00006   0.00009
    H84      Z     0.00012  -0.00082  -0.00045   0.00881   0.00001   0.00006
    H85      X    -0.00065   0.00010   0.00048  -0.00701  -0.00028   0.00008
    H85      Y    -0.00033  -0.00019   0.00036  -0.00519  -0.00011   0.00005
    H85      Z     0.00011   0.00013  -0.00005   0.00090  -0.00001   0.00001
    H86      X    -0.00020   0.00009   0.00020  -0.00363  -0.00001   0.00002
    H86      Y    -0.00025  -0.00001   0.00009  -0.00154  -0.00002   0.00003
    H86      Z     0.00102  -0.00022  -0.00062   0.01042   0.00011  -0.00014
    H87      X     0.00005  -0.00009  -0.01166  -0.00079   0.00008   0.00765
    H87      Y     0.00008  -0.00015  -0.01736  -0.00118   0.00011   0.01144
    H87      Z    -0.00004   0.00007   0.00796   0.00057  -0.00005  -0.00478
    H88      X    -0.00004   0.00004  -0.01335  -0.00075  -0.00006   0.01119
    H88      Y    -0.00000   0.00000   0.00006   0.00002  -0.00000   0.00034
    H88      Z    -0.00002   0.00003  -0.00289  -0.00016  -0.00003   0.00235
    H89      X     0.00001  -0.00002   0.00567   0.00030   0.00001  -0.00450
    H89      Y    -0.00004   0.00007  -0.01255  -0.00062  -0.00002   0.01085
    H89      Z    -0.00001   0.00003  -0.00246  -0.00011  -0.00002   0.00205
    H90      X    -0.00005   0.00004  -0.00384   0.00008  -0.00006  -0.00241
    H90      Y    -0.00011   0.00009  -0.00833  -0.00002  -0.00014  -0.00537
    H90      Z     0.00021  -0.00016   0.01898   0.00016   0.00027   0.01320
    H91      X    -0.00004  -0.00000   0.00985   0.00026   0.00002   0.00874
    H91      Y     0.00000   0.00000  -0.00395  -0.00007  -0.00002  -0.00354
    H91      Z    -0.00003   0.00001   0.00614   0.00018   0.00001   0.00591
    H104     X     0.00000  -0.00003  -0.00792  -0.00068  -0.00008  -0.00703
    H104     Y    -0.00002   0.00003   0.00705   0.00071   0.00008   0.00623
    H104     Z    -0.00002   0.00004   0.00784   0.00080   0.00008   0.00744
  
  Number of imaginary frequencies:   0
   
  Writing vibrational animation data to ox_add_Br_trans_L1_PL344_2.vib
  Writing IR vibrational spectrum data to ox_add_Br_trans_L1_PL344_2_vib.spm
  rotational symmetry number:  1

  rotational temperatures (K):      0.003569      0.002618      0.002227
   
  The Quasi-Harmonic approximation will be applied to compute
  vibrational constributions to thermodynamic properties.
  Frequencies will be adjusted to a minimum value of  100.00 cm^-1.

  vibrational temperatures:
       mode:      1        2        3        4        5        6
  temp. (K):   143.88   143.88   143.88   143.88   143.88   143.88
   
       mode:      7        8        9       10       11       12
  temp. (K):   143.88   143.88   143.88   143.88   143.88   143.88
   
       mode:     13       14       15       16       17       18
  temp. (K):   143.88   143.88   143.88   143.88   143.88   143.88
   
       mode:     19       20       21       22       23       24
  temp. (K):   143.88   154.01   162.10   172.12   181.90   195.05
   
       mode:     25       26       27       28       29       30
  temp. (K):   199.58   215.85   223.52   225.98   229.78   239.45
   
       mode:     31       32       33       34       35       36
  temp. (K):   248.20   256.35   267.49   295.06   300.56   306.27
   
       mode:     37       38       39       40       41       42
  temp. (K):   324.85   334.05   340.39   351.74   362.24   368.21
   
       mode:     43       44       45       46       47       48
  temp. (K):   370.74   377.98   382.21   384.92   391.89   398.81
   
       mode:     49       50       51       52       53       54
  temp. (K):   421.25   424.30   444.87   454.38   457.49   463.93
   
       mode:     55       56       57       58       59       60
  temp. (K):   469.32   483.02   483.70   490.56   513.54   536.83
   
       mode:     61       62       63       64       65       66
  temp. (K):   547.71   560.80   578.63   582.85   587.89   591.92
   
       mode:     67       68       69       70       71       72
  temp. (K):   596.94   609.47   632.27   645.90   652.32   654.86
   
       mode:     73       74       75       76       77       78
  temp. (K):   663.23   680.73   693.55   729.07   752.88   756.96
   
       mode:     79       80       81       82       83       84
  temp. (K):   763.91   776.07   800.98   810.52   837.74   856.64
   
       mode:     85       86       87       88       89       90
  temp. (K):   885.54   912.32   919.11   922.43   930.12   969.88
   
       mode:     91       92       93       94       95       96
  temp. (K):   975.91  1016.53  1043.34  1077.87  1093.40  1132.93
   
       mode:     97       98       99      100      101      102
  temp. (K):  1138.98  1165.23  1171.87  1178.29  1180.91  1191.48
   
       mode:    103      104      105      106      107      108
  temp. (K):  1192.12  1199.20  1208.81  1213.89  1215.56  1243.68
   
       mode:    109      110      111      112      113      114
  temp. (K):  1260.53  1265.65  1305.25  1312.25  1314.33  1318.52
   
       mode:    115      116      117      118      119      120
  temp. (K):  1319.90  1326.57  1328.22  1336.56  1348.79  1354.03
   
       mode:    121      122      123      124      125      126
  temp. (K):  1362.77  1369.12  1370.80  1371.14  1375.78  1376.57
   
       mode:    127      128      129      130      131      132
  temp. (K):  1392.16  1401.24  1417.17  1419.51  1423.49  1477.62
   
       mode:    133      134      135      136      137      138
  temp. (K):  1478.02  1487.26  1515.25  1526.31  1531.64  1550.11
   
       mode:    139      140      141      142      143      144
  temp. (K):  1552.04  1556.60  1581.26  1585.05  1596.64  1599.33
   
       mode:    145      146      147      148      149      150
  temp. (K):  1604.34  1608.61  1615.34  1618.62  1632.05  1640.59
   
       mode:    151      152      153      154      155      156
  temp. (K):  1644.43  1648.37  1652.77  1658.00  1663.92  1676.16
   
       mode:    157      158      159      160      161      162
  temp. (K):  1701.63  1703.61  1717.65  1721.06  1723.97  1741.04
   
       mode:    163      164      165      166      167      168
  temp. (K):  1746.06  1751.31  1754.41  1760.06  1771.19  1781.00
   
       mode:    169      170      171      172      173      174
  temp. (K):  1793.45  1808.73  1836.20  1861.47  1865.97  1871.00
   
       mode:    175      176      177      178      179      180
  temp. (K):  1881.22  1883.90  1890.61  1892.45  1899.76  1900.17
   
       mode:    181      182      183      184      185      186
  temp. (K):  1903.36  1907.68  1925.60  1925.98  1935.72  1936.65
   
       mode:    187      188      189      190      191      192
  temp. (K):  1941.35  1954.48  1966.30  1969.35  1975.45  1978.73
   
       mode:    193      194      195      196      197      198
  temp. (K):  1979.85  1999.20  2001.05  2012.95  2013.04  2017.45
   
       mode:    199      200      201      202      203      204
  temp. (K):  2019.22  2019.92  2024.84  2028.31  2030.10  2046.81
   
       mode:    205      206      207      208      209      210
  temp. (K):  2048.10  2050.25  2052.27  2076.44  2077.74  2081.30
   
       mode:    211      212      213      214      215      216
  temp. (K):  2105.75  2128.77  2130.11  2154.42  2157.22  2157.95
   
       mode:    217      218      219      220      221      222
  temp. (K):  2164.05  2168.42  2172.73  2174.34  2176.13  2177.43
   
       mode:    223      224      225      226      227      228
  temp. (K):  2180.77  2182.38  2184.37  2185.44  2185.78  2186.84
   
       mode:    229      230      231      232      233      234
  temp. (K):  2189.04  2190.16  2190.80  2191.56  2197.72  2198.85
   
       mode:    235      236      237      238      239      240
  temp. (K):  2201.54  2202.98  2204.03  2205.88  2208.15  2210.18
   
       mode:    241      242      243      244      245      246
  temp. (K):  2216.46  2220.65  2223.29  2295.42  2361.70  2365.04
   
       mode:    247      248      249      250      251      252
  temp. (K):  2368.23  2383.46  2401.75  4348.34  4348.93  4353.70
   
       mode:    253      254      255      256      257      258
  temp. (K):  4355.77  4356.12  4358.95  4363.88  4370.09  4375.58
   
       mode:    259      260      261      262      263      264
  temp. (K):  4379.57  4380.06  4383.79  4386.34  4388.72  4389.39
   
       mode:    265      266      267      268      269      270
  temp. (K):  4389.40  4397.30  4403.53  4406.41  4426.65  4428.50
   
       mode:    271      272      273      274      275      276
  temp. (K):  4434.48  4436.13  4439.20  4445.36  4445.74  4448.19
   
       mode:    277      278      279      280      281      282
  temp. (K):  4449.92  4452.03  4458.65  4466.22  4482.41  4485.96
   
       mode:    283      284      285      286      287      288
  temp. (K):  4486.10  4486.26  4488.95  4491.70  4494.38  4498.77
   
       mode:    289      290      291      292      293      294
  temp. (K):  4505.29  4505.67  4514.20  4516.22  4520.54  4524.70
   
       mode:    295      296      297      298      299      300
  temp. (K):  4532.16  4536.83  4557.72  4560.01  4584.52  4600.54
   
       mode:    301      302      303      304      305      306
  temp. (K):  4607.03  4625.43  4632.19  4632.92  4648.13  4653.22
   
   
  Thermodynamic properties calculated assuming an ideal gas

  In the table below, the units for temperature
  are kelvins, the units for U, H, and G are
  kcal/mol and the units for Cv and S are cal/(mol K)

  The zero point energy (ZPE):    570.277 kcal/mol
  is not included in U, H, or G in the table below
  
 
  =============================================================================
  Thermodynamic properties for P = 1.00E+00 atm, calculated at   1 temperatures


  T =   298.15 K, P = 1.00E+00 atm
   
                  U         Cv          S          H          G        ln(Q)
              =========  =========  =========  =========  =========  =========
  trans.          0.889      2.981     45.976      1.481    -12.227   20.63617
  rot.            0.889      2.981     38.676      0.889    -10.643   17.96270
  vib.           28.740    186.066    176.106     28.740    -23.766   40.11274
  elec.           0.000      0.000      0.000      0.000      0.000    0.00000
  ----------------------------------------------------------------------------
  total          30.517    192.027    260.759     31.110    -46.635   78.71161
   
   Total internal energy, Utot(SCFE + ZPE + U):   -2326.901924 hartrees
   Total enthalpy, Htot (Utot + nRT), with n=1:   -2326.900980 hartrees
    Total Gibbs free energy, Gtot (Htot - T*S):   -2327.024875 hartrees
   
  end of program freq
   
 Time(freq)  user:       0.425  user+sys:       0.425  wallclock:       0.665
  
  start of program post
  
  Writing input files for PBF
  end of program post
   
 Time(post)  user:       0.181  user+sys:       0.181  wallclock:       0.119

 Total cpu seconds     user:  167749.420   user+sys:  167749.420
  
 Total elapsed time:    95602 seconds

Job ox_add_Br_trans_L1_PL344_2 completed on bp1-compute050.data.bp.acrc.priv at Sun Apr 20 15:12:09 2025
