Job ox_add_TS_L1_PL344_8 started on bp1-compute086 at Wed Dec 10 15:08:54 2025
jobid: bp1-compute086-0-69398cf2

  +--------------------------------------------------------------------+
  |  Jaguar version 12.5, release 138                                  |
  |                                                                    |
  |  Copyright Schrodinger, Inc.                                       |
  |  All Rights Reserved.                                              |
  |                                                                    |
  |  The following have contributed to Jaguar (listed alphabetically): |
  |  Ty Balduf, Mike Beachy, Chandler Bennett, Art Bochevarov,         |
  |  Dale Braden, Yixiang Cao, Alan Chien, Chris Cortis,               |
  |  Rich Friesner, Jim Furness, Bill Goddard, Hod Greeley,            |
  |  Tom Hughes, Leif Jacobson, Jean-Marc Langlois, Daniel Levine,     |
  |  Rob Murphy, Dean Philipp, Tom Pollard, Murco Ringnalda,           |
  |  Daniel Mainz, Pablo Videla, Mark Watson, Haoyu Yu.                |
  |                                                                    |
  |  Use of this program should be acknowledged in publications as:    |
  |                                                                    |
  |  Jaguar, version 12.5, Schrodinger, Inc., New York, NY, 2024.      |
  |                                                                    |
  |  A. D. Bochevarov, E. Harder, T. F. Hughes, J. R. Greenwood,       |
  |  D. A. Braden, D. M. Philipp, D. Rinaldo, M. D. Halls,             |
  |  J. Zhang, R. A. Friesner, "Jaguar: A High-Performance Quantum     |
  |  Chemistry Software Program with Strengths in Life and Materials   |
  |  Sciences", Int. J. Quantum Chem., 2013, 113(18), 2110-2142.       |
  +--------------------------------------------------------------------+
  
  start of program pre
  
  Job name: ox_add_TS_L1_PL344_8
  Executables used: /software/local/apps/schrodinger2024-3/jaguar-v12.5/bin/Linux-x86_64
  Temporary files : /tmp/ar21627/ox_add_TS_L1_PL344_8#bp1-compute086-0-69398cf2
  Basis file : using default basis file from /software/local/apps/schrodinger2024-3
  Maestro file (input):  ox_add_TS_L1_PL344_8.mae
  Maestro file (output): ox_add_TS_L1_PL344_8.01.mae
  
 Contents of input file: &gen and (if present) &atomic sections only
 ----------------Contents start----------------
&gen
dftname=b3pw91-d3
basis=6-31G*
numd=5
ip11=2
iaccg=3
isolv=2
igeopt=2
solvent=benzene
ifreq=1
&
&atomic
atom basis
Pd2 lacv3p*
Br3 lacv3p*
&
 -----------------Contents end-----------------
 
  PS calculation requested. Using PS version of 6-31g*
  basis set:               non_standard                    
  net molecular charge:    0
  multiplicity:            1
  
  Using up to  18 threads per process
  
  This run will use ECP on            2  atoms
  number of basis functions....          788
  
 Input geometry:
                                   angstroms
  atom               x                 y                 z
  P1            0.0000000000      0.0000000000      0.0000000000 
  Pd2           0.0000000000      0.0000000000      2.3850868176 
  Br3           1.5194804920      0.0000000000      4.7347741303 
  C1           -0.3393762677      3.0239033463      1.2169337838 
  C2            0.8899694136      3.2425724726      1.8806189095 
  C3            0.8769553976      3.6686842826      3.2126892941 
  C4           -0.3092475001      3.9006735776      3.9089895654 
  C5           -1.5136908916      3.6569016595      3.2418652534 
  C6           -1.5552063220      3.2277096818      1.9108806568 
  H7            1.8212301701      3.8456369430      3.7190383054 
  H8           -2.4498531775      3.8300233676      3.7647704653 
  C9            2.2245018552      3.1177106754      1.1538547524 
  C10           3.2771136296      2.3364083277      1.9556331102 
  C11           2.7490712894      4.5133200143      0.7645882101 
  H12           2.0503535848      2.5659669362      0.2277331228 
  H13           2.8908750527      1.3639303769      2.2737810754 
  H14           4.1732305079      2.1758483161      1.3448356300 
  H15           3.5916095438      2.8771895516      2.8547691262 
  H16           2.0076089140      5.0618822953      0.1763263525 
  H17           2.9689278719      5.1073418288      1.6594307307 
  H18           3.6714530143      4.4335541347      0.1770717127 
  C19          -0.2827756396      4.4491481471      5.3297402424 
  C20          -0.9138106600      3.4851525846      6.3488762204 
  C21          -0.9527444839      5.8337677257      5.4008653817 
  H22           0.7713790723      4.5753866433      5.6081207782 
  H23          -0.3929435069      2.5229976543      6.3599140444 
  H24          -0.8655542214      3.9064356744      7.3596973698 
  H25          -1.9700327755      3.2994862051      6.1204699744 
  H26          -0.4917014285      6.5340040671      4.6963227677 
  H27          -2.0192055605      5.7698328137      5.1563225096 
  H28          -0.8675658745      6.2565941953      6.4086333536 
  C29          -2.9110238899      3.0557130190      1.2314040029 
  C30          -3.5263746806      4.4210673387      0.8683748938 
  C31          -3.9032510871      2.2415583631      2.0803908019 
  H32          -2.7456659328      2.5095963913      0.2976960942 
  H33          -2.8567078429      5.0009081434      0.2301507800 
  H34          -4.4821578347      4.2895841157      0.3470452543 
  H35          -3.7155130203      5.0097306080      1.7737856561 
  H36          -3.4622773795      1.3097205313      2.4388063452 
  H37          -4.2410747108      2.8070728228      2.9563269815 
  H38          -4.7947798961      1.9969604625      1.4917291420 
  C39          -0.3377301772      2.8189015560     -0.2778779864 
  C40          -0.1895689740      1.5872809640     -0.9569899121 
  C41          -0.4343305124      4.0175456034     -1.0327680961 
  C42          -0.1305906528      1.5972203952     -2.3767763566 
  C43          -0.4222339945      3.9922886241     -2.4231384241 
  C44          -0.2682572343      2.7809168646     -3.0957206191 
  H45          -0.5109305264      4.9049274822     -2.9995521013 
  H46          -0.2389459859      2.7815114847     -4.1781554507 
  O47          -0.5179404014      5.1753086412     -0.3040967925 
  O48           0.0962906993      0.3955450693     -2.9860253987 
  C49          -0.5750530401      6.4121800539     -0.9994347462 
  H50          -1.4729965465      6.4886836666     -1.6272044041 
  H51          -0.6142874915      7.1845330173     -0.2289832783 
  H52           0.3153463147      6.5718330828     -1.6220889040 
  C53           0.0587918150      0.3129828208     -4.4019423881 
  H54           0.8596242811      0.9029748456     -4.8664142116 
  H55           0.2111777066     -0.7407353696     -4.6437127569 
  H56          -0.9103965367      0.6364042255     -4.8034486289 
  C57           1.4362283735     -0.9335055031     -0.7720450149 
  C58           2.6730694057     -0.0354276293     -0.9554987077 
  C59           1.7905950010     -2.1534161206      0.1044484175 
  H60           1.1235140874     -1.2884654597     -1.7571068661 
  C61           3.8497233643     -0.8231919211     -1.5526511113 
  H62           2.9700274371      0.3692903618      0.0195669418 
  H63           2.4329545763      0.8172730239     -1.5985497573 
  C64           2.9634715491     -2.9445782571     -0.4974386477 
  H65           2.0640976186     -1.8057250102      1.1102064430 
  H66           0.9230979247     -2.8128969823      0.2251689339 
  C67           4.1946831783     -2.0510701125     -0.6988718732 
  H68           4.7236789301     -0.1674895583     -1.6511795060 
  H69           3.5841151379     -1.1499640522     -2.5685574861 
  H70           3.2091342488     -3.7936488089      0.1520056560 
  H71           2.6578318864     -3.3660098549     -1.4659860435 
  H72           5.0105479191     -2.6215730005     -1.1594348128 
  H73           4.5577348973     -1.7151155164      0.2827777621 
  C74          -1.4914013624     -1.0960916758     -0.3879352649 
  C75          -2.7536830815     -0.5582344981      0.3126627524 
  C76          -1.8139836062     -1.4769169554     -1.8431624421 
  H77          -1.2017923367     -2.0155860638      0.1422426789 
  C78          -3.9093211229     -1.5666044434      0.2510179362 
  H79          -3.0607140675      0.3797663325     -0.1678170084 
  H80          -2.5262971604     -0.3227367618      1.3569836100 
  C81          -2.9596356664     -2.5029282197     -1.8962657162 
  H82          -2.1072097696     -0.5771429010     -2.3957018897 
  H83          -0.9310441126     -1.8796163269     -2.3468962332 
  C84          -4.2201220455     -1.9809496631     -1.1931512038 
  H85          -4.7988097549     -1.1392725067      0.7299543803 
  H86          -3.6348489208     -2.4559092380      0.8362522004 
  H87          -3.1812462234     -2.7563807821     -2.9406456720 
  H88          -2.6334243871     -3.4335940121     -1.4098460089 
  H89          -5.0131613508     -2.7385234873     -1.2142873123 
  H90          -4.6018336147     -1.1084407418     -1.7429716829 
  C93          -0.6547510127     -0.5928700087      4.1979081615 
  C94          -0.8636530981     -1.9821999669      4.1364592534 
  C95          -1.6638364031      0.2918876596      4.6076100171 
  C96          -2.1487131196     -2.4706603082      4.3913253884 
  H97          -0.0441351671     -2.6504109063      3.8966889012 
  C98          -2.9380034138     -0.2262015935      4.8558119942 
  H99          -1.4623228124      1.3516198674      4.6854268012 
  C100         -3.1826430163     -1.5989797059      4.7479762595 
  H101         -2.3346987194     -3.5392179580      4.3220346802 
  H102         -3.7405231910      0.4522494816      5.1326895397 
  F104         -4.3999079680     -2.0798542776      5.0007897948 
   
  principal moments of inertia:
        amu*angstrom^2:              7986.81443              9111.12455             10473.02603
                g*cm^2:          1.32624157E-36          1.51293764E-36          1.73908667E-36
   
  rotational constants:
               cm^(-1):      0.00211068      0.00185022      0.00160962
                   GHz:      0.06327667      0.05546835      0.04825530
   
  Molecular weight:     816.23 amu
   
  Stoichiometry: PdC41PH57BrO2F
  Molecular Point Group: C1      
  Point Group used: C1
  
 
Number of optimization coordinates:   349
Number of independent coordinates:    349
Number of non-redundant coordinates:  306
Number of frozen coordinates:           0
Number of harmonic constraints:         0
 
Number of geometric degrees of freedom:   306
Maximum geometric degrees of freedom:     306
 " " " " " excluding dummy atoms:         306
 
 
  bond lengths (angstroms):
 
 P1      -Pd2     :   2.385087      P1      -C40     :   1.863123
 P1      -C57     :   1.878893      P1      -C74     :   1.891081
 Pd2     -Br3     :   2.798187      Pd2     -C93     :   2.016560
 C1      -C2      :   1.414067      C1      -C6      :   1.414688
 C1      -C39     :   1.508804      C2      -C3      :   1.398625
 C2      -C9      :   1.524714      C3      -C4      :   1.394894
 C3      -H7      :   1.085982      C4      -C5      :   1.398272
 C4      -C19     :   1.523174      C5      -C6      :   1.399089
 C5      -H8      :   1.086186      C6      -C29     :   1.526274
 C9      -C10     :   1.536644      C9      -C11     :   1.540918
 C9      -H12     :   1.091994      C10     -H13     :   1.093669
 C10     -H14     :   1.096302      C10     -H15     :   1.095353
 C11     -H16     :   1.093956      C11     -H17     :   1.096331
 C11     -H18     :   1.096506      C19     -C20     :   1.538223
 C19     -C21     :   1.539834      C19     -H22     :   1.097576
 C20     -H23     :   1.094151      C20     -H24     :   1.096160
 C20     -H25     :   1.096470      C21     -H26     :   1.095113
 C21     -H27     :   1.096006      C21     -H28     :   1.096191
 C29     -C30     :   1.540986      C29     -C31     :   1.538877
 C29     -H32     :   1.094256      C30     -H33     :   1.091787
 C30     -H34     :   1.096628      C30     -H35     :   1.096388
 C31     -H36     :   1.091440      C31     -H37     :   1.095991
 C31     -H38     :   1.095981      C39     -C40     :   1.414226
 C39     -C41     :   1.419837      C40     -C42     :   1.421046
 C41     -C43     :   1.390652      C41     -O47     :   1.370536
 C42     -C44     :   1.391751      C42     -O48     :   1.366266
 C43     -C44     :   1.394094      C43     -H45     :   1.083065
 C44     -H46     :   1.082832      O47     -C49     :   1.420073
 O48     -C53     :   1.418818      C49     -H50     :   1.098294
 C49     -H51     :   1.091634      C49     -H52     :   1.098180
 C53     -H54     :   1.097797      C53     -H55     :   1.091786
 C53     -H56     :   1.097786      C57     -C58     :   1.539472
 C57     -C59     :   1.543372      C57     -H60     :   1.092764
 C58     -C61     :   1.536775      C58     -H62     :   1.096692
 C58     -H63     :   1.094654      C59     -C64     :   1.537480
 C59     -H65     :   1.098746      C59     -H66     :   1.096376
 C61     -C67     :   1.534803      C61     -H68     :   1.097019
 C61     -H69     :   1.099724      C64     -C67     :   1.534540
 C64     -H70     :   1.096836      C64     -H71     :   1.099593
 C67     -H72     :   1.096917      C67     -H73     :   1.099231
 C74     -C75     :   1.540611      C74     -C76     :   1.538432
 C74     -H77     :   1.100196      C75     -C78     :   1.534962
 C75     -H79     :   1.097713      C75     -H80     :   1.094427
 C76     -C81     :   1.538843      C76     -H82     :   1.095844
 C76     -H83     :   1.093388      C78     -C84     :   1.534244
 C78     -H85     :   1.096897      C78     -H86     :   1.099408
 C81     -C84     :   1.534815      C81     -H87     :   1.097305
 C81     -H88     :   1.099617      C84     -H89     :   1.096939
 C84     -H90     :   1.099672      C93     -C94     :   1.406291
 C93     -C95     :   1.403177      C94     -C96     :   1.398188
 C94     -H97     :   1.084253      C95     -C98     :   1.397685
 C95     -H99     :   1.081525      C96     -C100    :   1.398584
 C96     -H101    :   1.086834      C98     -C100    :   1.398570
 C98     -H102    :   1.086736      C100    -F104    :   1.333000
 
  bond angles:
 
 C40     -P1      -Pd2     : 120.907148  C57     -P1      -Pd2     : 114.261651
 C57     -P1      -C40     : 106.857686  C74     -P1      -Pd2     : 101.837658
 C74     -P1      -C40     : 107.949857  C74     -P1      -C57     : 103.331205
 Br3     -Pd2     -P1      : 147.110322  C93     -Pd2     -P1      : 154.022633
 C93     -Pd2     -Br3     :  54.650253  C6      -C1      -C2      : 119.647263
 C39     -C1      -C2      : 119.016048  C39     -C1      -C6      : 120.430482
 C3      -C2      -C1      : 119.080261  C9      -C2      -C1      : 121.637981
 C9      -C2      -C3      : 119.148035  C4      -C3      -C2      : 122.276560
 H7      -C3      -C2      : 119.053367  H7      -C3      -C4      : 118.657857
 C5      -C4      -C3      : 117.733045  C19     -C4      -C3      : 120.711762
 C19     -C4      -C5      : 121.518335  C6      -C5      -C4      : 122.203151
 H8      -C5      -C4      : 119.008136  H8      -C5      -C6      : 118.770271
 C5      -C6      -C1      : 119.035019  C29     -C6      -C1      : 121.927014
 C29     -C6      -C5      : 118.976101  C10     -C9      -C2      : 113.109901
 C11     -C9      -C2      : 110.133432  C11     -C9      -C10     : 111.045936
 H12     -C9      -C2      : 107.821007  H12     -C9      -C10     : 107.149128
 H12     -C9      -C11     : 107.317084  H13     -C10     -C9      : 111.221409
 H14     -C10     -C9      : 110.101699  H14     -C10     -H13     : 108.694224
 H15     -C10     -C9      : 111.960021  H15     -C10     -H13     : 107.554093
 H15     -C10     -H14     : 107.154824  H16     -C11     -C9      : 111.055406
 H17     -C11     -C9      : 110.659230  H17     -C11     -H16     : 107.645892
 H18     -C11     -C9      : 110.844763  H18     -C11     -H16     : 108.572449
 H18     -C11     -H17     : 107.942170  C20     -C19     -C4      : 112.655896
 C21     -C19     -C4      : 111.057995  C21     -C19     -C20     : 110.758548
 H22     -C19     -C4      : 107.138620  H22     -C19     -C20     : 107.340207
 H22     -C19     -C21     : 107.622327  H23     -C20     -C19     : 111.252772
 H24     -C20     -C19     : 110.612475  H24     -C20     -H23     : 107.920803
 H25     -C20     -C19     : 111.301912  H25     -C20     -H23     : 108.165982
 H25     -C20     -H24     : 107.432288  H26     -C21     -C19     : 111.227746
 H27     -C21     -C19     : 111.137212  H27     -C21     -H26     : 107.662301
 H28     -C21     -C19     : 110.824007  H28     -C21     -H26     : 108.186075
 H28     -C21     -H27     : 107.651988  C30     -C29     -C6      : 111.085273
 C31     -C29     -C6      : 112.754175  C31     -C29     -C30     : 109.953372
 H32     -C29     -C6      : 107.570099  H32     -C29     -C30     : 107.548897
 H32     -C29     -C31     : 107.706640  H33     -C30     -C29     : 111.305762
 H34     -C30     -C29     : 110.719760  H34     -C30     -H33     : 108.685119
 H35     -C30     -C29     : 110.490874  H35     -C30     -H33     : 107.662289
 H35     -C30     -H34     : 107.854808  H36     -C31     -C29     : 111.860922
 H37     -C31     -C29     : 111.510986  H37     -C31     -H36     : 107.614707
 H38     -C31     -C29     : 110.257957  H38     -C31     -H36     : 108.330459
 H38     -C31     -H37     : 107.078911  C40     -C39     -C1      : 126.454786
 C41     -C39     -C1      : 114.328350  C41     -C39     -C40     : 119.145245
 C39     -C40     -P1      : 120.394332  C42     -C40     -P1      : 120.992719
 C42     -C40     -C39     : 118.556936  C43     -C41     -C39     : 121.040341
 O47     -C41     -C39     : 115.761520  O47     -C41     -C43     : 123.191167
 C44     -C42     -C40     : 121.195589  O48     -C42     -C40     : 116.504476
 O48     -C42     -C44     : 122.284483  C44     -C43     -C41     : 119.940185
 H45     -C43     -C41     : 121.069785  H45     -C43     -C44     : 118.978547
 C43     -C44     -C42     : 120.048750  H46     -C44     -C42     : 120.942363
 H46     -C44     -C43     : 118.998516  C49     -O47     -C41     : 118.547948
 C53     -O48     -C42     : 119.459148  H50     -C49     -O47     : 111.927233
 H51     -C49     -O47     : 105.789600  H51     -C49     -H50     : 108.950119
 H52     -C49     -O47     : 111.816854  H52     -C49     -H50     : 109.188777
 H52     -C49     -H51     : 109.053407  H54     -C53     -O48     : 111.819001
 H55     -C53     -O48     : 105.870567  H55     -C53     -H54     : 108.855550
 H56     -C53     -O48     : 111.788647  H56     -C53     -H54     : 109.326953
 H56     -C53     -H55     : 109.060905  C58     -C57     -P1      : 111.916902
 C59     -C57     -P1      : 109.564336  C59     -C57     -C58     : 110.139737
 H60     -C57     -P1      : 108.242838  H60     -C57     -C58     : 108.178901
 H60     -C57     -C59     : 108.716822  C61     -C58     -C57     : 111.248593
 H62     -C58     -C57     : 109.079454  H62     -C58     -C61     : 109.106667
 H63     -C58     -C57     : 110.377064  H63     -C58     -C61     : 109.815277
 H63     -C58     -H62     : 107.111117  C64     -C59     -C57     : 111.073794
 H65     -C59     -C57     : 109.079296  H65     -C59     -C64     : 109.347090
 H66     -C59     -C57     : 110.873339  H66     -C59     -C64     : 109.705208
 H66     -C59     -H65     : 106.649224  C67     -C61     -C58     : 111.471110
 H68     -C61     -C58     : 109.784538  H68     -C61     -C67     : 110.431613
 H69     -C61     -C58     : 109.047399  H69     -C61     -C67     : 109.295878
 H69     -C61     -H68     : 106.681270  C67     -C64     -C59     : 111.335497
 H70     -C64     -C59     : 109.719031  H70     -C64     -C67     : 110.411374
 H71     -C64     -C59     : 109.268798  H71     -C64     -C67     : 109.302235
 H71     -C64     -H70     : 106.685072  C64     -C67     -C61     : 111.009006
 H72     -C67     -C61     : 110.468655  H72     -C67     -C64     : 110.428592
 H73     -C67     -C61     : 109.056475  H73     -C67     -C64     : 109.009410
 H73     -C67     -H72     : 106.753795  C75     -C74     -P1      : 110.519729
 C76     -C74     -P1      : 120.191270  C76     -C74     -C75     : 110.168295
 H77     -C74     -P1      : 100.250833  H77     -C74     -C75     : 106.756982
 H77     -C74     -C76     : 107.706606  C78     -C75     -C74     : 111.669329
 H79     -C75     -C74     : 109.174325  H79     -C75     -C78     : 109.462802
 H80     -C75     -C74     : 109.805307  H80     -C75     -C78     : 109.639661
 H80     -C75     -H79     : 106.972418  C81     -C76     -C74     : 110.719589
 H82     -C76     -C74     : 109.256614  H82     -C76     -C81     : 109.319599
 H83     -C76     -C74     : 110.955235  H83     -C76     -C81     : 109.860572
 H83     -C76     -H82     : 106.629929  C84     -C78     -C75     : 111.575838
 H85     -C78     -C75     : 109.697417  H85     -C78     -C84     : 110.605728
 H86     -C78     -C75     : 108.787154  H86     -C78     -C84     : 109.462257
 H86     -C78     -H85     : 106.568080  C84     -C81     -C76     : 111.645253
 H87     -C81     -C76     : 109.706533  H87     -C81     -C84     : 110.408241
 H88     -C81     -C76     : 109.158090  H88     -C81     -C84     : 109.197582
 H88     -C81     -H87     : 106.585300  C81     -C84     -C78     : 110.897281
 H89     -C84     -C78     : 110.554863  H89     -C84     -C81     : 110.489389
 H90     -C84     -C78     : 109.066931  H90     -C84     -C81     : 109.017765
 H90     -C84     -H89     : 106.701053  C94     -C93     -Pd2     : 107.421898
 C95     -C93     -Pd2     : 108.095369  C95     -C93     -C94     : 121.928805
 C96     -C94     -C93     : 118.274948  H97     -C94     -C93     : 120.413603
 H97     -C94     -C96     : 121.311447  C98     -C95     -C93     : 118.275700
 H99     -C95     -C93     : 120.321313  H99     -C95     -C98     : 121.351591
 C100    -C96     -C94     : 120.544075  H101    -C96     -C94     : 119.283849
 H101    -C96     -C100    : 120.167422  C100    -C98     -C95     : 120.637973
 H102    -C98     -C95     : 119.146026  H102    -C98     -C100    : 120.215883
 C98     -C100    -C96     : 120.139955  F104    -C100    -C96     : 119.908036
 F104    -C100    -C98     : 119.947363
 
  torsional angles:
 
 P1      -Pd2     -C93     -C94     :  41.531858
 P1      -Pd2     -C93     -C95     : -91.756612
 P1      -C40     -C39     -C1      :   1.127646
 P1      -C40     -C39     -C41     : 177.864955
 P1      -C40     -C42     -C44     :-179.834514
 P1      -C40     -C42     -O48     :  -1.232876
 P1      -C57     -C58     -C61     : 178.474576
 P1      -C57     -C58     -H62     :  58.069270
 P1      -C57     -C58     -H63     : -59.355600
 P1      -C57     -C59     -C64     : 179.948293
 P1      -C57     -C59     -H65     : -59.457588
 P1      -C57     -C59     -H66     :  57.694399
 P1      -C74     -C75     -C78     :-168.644794
 P1      -C74     -C75     -H79     :  70.173410
 P1      -C74     -C75     -H80     : -46.808897
 P1      -C74     -C76     -C81     : 173.194937
 P1      -C74     -C76     -H82     : -66.352805
 P1      -C74     -C76     -H83     :  50.931633
 Pd2     -P1      -C40     -C39     :  -0.049844
 Pd2     -P1      -C40     -C42     : 177.188996
 Pd2     -P1      -C57     -C58     : -87.682025
 Pd2     -P1      -C57     -C59     :  34.788037
 Pd2     -P1      -C57     -H60     : 153.193854
 Pd2     -P1      -C74     -C75     :  54.931198
 Pd2     -P1      -C74     -C76     :-175.002855
 Pd2     -P1      -C74     -H77     : -57.434991
 Pd2     -C93     -C94     -C96     :-120.238192
 Pd2     -C93     -C94     -H97     :  59.744585
 Pd2     -C93     -C95     -C98     : 119.914371
 Pd2     -C93     -C95     -H99     : -57.513600
 Br3     -Pd2     -P1      -C40     : -96.810577
 Br3     -Pd2     -P1      -C57     :  33.022663
 Br3     -Pd2     -P1      -C74     : 143.686317
 Br3     -Pd2     -C93     -C94     :-111.925147
 Br3     -Pd2     -C93     -C95     : 114.786383
 C1      -C2      -C3      -C4      :  -0.709186
 C1      -C2      -C3      -H7      :-179.420021
 C1      -C2      -C9      -C10     :-135.228011
 C1      -C2      -C9      -C11     :  99.860710
 C1      -C2      -C9      -H12     : -16.938475
 C1      -C6      -C5      -C4      :   0.440310
 C1      -C6      -C5      -H8      : 178.861764
 C1      -C6      -C29     -C30     :-102.027957
 C1      -C6      -C29     -C31     : 134.031838
 C1      -C6      -C29     -H32     :  15.427514
 C1      -C39     -C40     -C42     :-176.177605
 C1      -C39     -C41     -C43     : 178.899823
 C1      -C39     -C41     -O47     :  -0.169318
 C2      -C1      -C6      -C5      :   0.658697
 C2      -C1      -C6      -C29     : 177.767845
 C2      -C1      -C39     -C40     :  88.432385
 C2      -C1      -C39     -C41     : -88.440451
 C2      -C3      -C4      -C5      :   1.758135
 C2      -C3      -C4      -C19     :-176.066755
 C2      -C9      -C10     -H13     :  52.913239
 C2      -C9      -C10     -H14     : 173.460517
 C2      -C9      -C10     -H15     : -67.446503
 C2      -C9      -C11     -H16     : -55.073411
 C2      -C9      -C11     -H17     :  64.418450
 C2      -C9      -C11     -H18     :-175.855551
 C3      -C2      -C1      -C6      :  -0.530451
 C3      -C2      -C1      -C39     : 168.624641
 C3      -C2      -C9      -C10     :  49.015426
 C3      -C2      -C9      -C11     : -75.895852
 C3      -C2      -C9      -H12     : 167.304962
 C3      -C4      -C5      -C6      :  -1.620906
 C3      -C4      -C5      -H8      : 179.961262
 C3      -C4      -C19     -C20     :-118.504241
 C3      -C4      -C19     -C21     : 116.587549
 C3      -C4      -C19     -H22     :  -0.684396
 C4      -C3      -C2      -C9      : 175.157112
 C4      -C5      -C6      -C29     :-176.755154
 C4      -C19     -C20     -H23     :  59.339797
 C4      -C19     -C20     -H24     : 179.275286
 C4      -C19     -C20     -H25     : -61.371102
 C4      -C19     -C21     -H26     : -55.507118
 C4      -C19     -C21     -H27     :  64.436220
 C4      -C19     -C21     -H28     :-175.902220
 C5      -C4      -C3      -H7      :-179.526135
 C5      -C4      -C19     -C20     :  63.754225
 C5      -C4      -C19     -C21     : -61.153985
 C5      -C4      -C19     -H22     :-178.425930
 C5      -C6      -C1      -C39     :-168.340547
 C5      -C6      -C29     -C30     :  75.082840
 C5      -C6      -C29     -C31     : -48.857364
 C5      -C6      -C29     -H32     :-167.461689
 C6      -C1      -C2      -C9      :-176.289814
 C6      -C1      -C39     -C40     :-102.499644
 C6      -C1      -C39     -C41     :  80.627520
 C6      -C5      -C4      -C19     : 176.185414
 C6      -C29     -C30     -H33     :  56.862600
 C6      -C29     -C30     -H34     : 177.871401
 C6      -C29     -C30     -H35     : -62.702017
 C6      -C29     -C31     -H36     : -49.757367
 C6      -C29     -C31     -H37     :  70.813305
 C6      -C29     -C31     -H38     :-170.373494
 H7      -C3      -C2      -C9      :  -3.553723
 H7      -C3      -C4      -C19     :   2.648975
 H8      -C5      -C4      -C19     :  -2.232419
 H8      -C5      -C6      -C29     :   1.666300
 C9      -C2      -C1      -C39     :  -7.134721
 C10     -C9      -C11     -H16     : 178.841487
 C10     -C9      -C11     -H17     : -61.666651
 C10     -C9      -C11     -H18     :  58.059347
 C11     -C9      -C10     -H13     : 177.328768
 C11     -C9      -C10     -H14     : -62.123954
 C11     -C9      -C10     -H15     :  56.969026
 H12     -C9      -C10     -H13     : -65.766361
 H12     -C9      -C10     -H14     :  54.780917
 H12     -C9      -C10     -H15     : 173.873897
 H12     -C9      -C11     -H16     :  62.039513
 H12     -C9      -C11     -H17     :-178.468626
 H12     -C9      -C11     -H18     : -58.742627
 C20     -C19     -C21     -H26     : 178.523289
 C20     -C19     -C21     -H27     : -61.533373
 C20     -C19     -C21     -H28     :  58.128187
 C21     -C19     -C20     -H23     :-175.588556
 C21     -C19     -C20     -H24     : -55.653067
 C21     -C19     -C20     -H25     :  63.700545
 H22     -C19     -C20     -H23     : -58.361206
 H22     -C19     -C20     -H24     :  61.574283
 H22     -C19     -C20     -H25     :-179.072105
 H22     -C19     -C21     -H26     :  61.469266
 H22     -C19     -C21     -H27     :-178.587397
 H22     -C19     -C21     -H28     : -58.925837
 C29     -C6      -C1      -C39     :   8.768602
 C30     -C29     -C31     -H36     :-174.319747
 C30     -C29     -C31     -H37     : -53.749076
 C30     -C29     -C31     -H38     :  65.064125
 C31     -C29     -C30     -H33     :-177.617352
 C31     -C29     -C30     -H34     : -56.608551
 C31     -C29     -C30     -H35     :  62.818031
 H32     -C29     -C30     -H33     : -60.605780
 H32     -C29     -C30     -H34     :  60.403021
 H32     -C29     -C30     -H35     : 179.829603
 H32     -C29     -C31     -H36     :  68.767214
 H32     -C29     -C31     -H37     :-170.662115
 H32     -C29     -C31     -H38     : -51.848914
 C39     -C40     -P1      -C57     :-133.035540
 C39     -C40     -P1      -C74     : 116.390074
 C39     -C40     -C42     -C44     :  -2.546034
 C39     -C40     -C42     -O48     : 176.055604
 C39     -C41     -C43     -C44     :  -2.178132
 C39     -C41     -C43     -H45     : 179.067196
 C39     -C41     -O47     -C49     : 178.075599
 C40     -P1      -Pd2     -C93     : 125.349926
 C40     -P1      -C57     -C58     :  48.810171
 C40     -P1      -C57     -C59     : 171.280232
 C40     -P1      -C57     -H60     : -70.313950
 C40     -P1      -C74     -C75     : -73.352827
 C40     -P1      -C74     -C76     :  56.713121
 C40     -P1      -C74     -H77     : 174.280984
 C40     -C39     -C41     -C43     :   1.779493
 C40     -C39     -C41     -O47     :-177.289648
 C40     -C42     -C44     -C43     :   2.199148
 C40     -C42     -C44     -H46     :-178.984132
 C40     -C42     -O48     -C53     : 174.884691
 C41     -C39     -C40     -C42     :   0.559704
 C41     -C43     -C44     -C42     :   0.184435
 C41     -C43     -C44     -H46     :-178.655216
 C41     -O47     -C49     -H50     :  62.708387
 C41     -O47     -C49     -H51     :-178.761054
 C41     -O47     -C49     -H52     : -60.165638
 C42     -C40     -P1      -C57     :  44.203300
 C42     -C40     -P1      -C74     : -66.371086
 C42     -C44     -C43     -H45     : 178.965108
 C42     -O48     -C53     -H54     :  64.682140
 C42     -O48     -C53     -H55     :-176.910342
 C42     -O48     -C53     -H56     : -58.271733
 C43     -C41     -O47     -C49     :  -0.971342
 C43     -C44     -C42     -O48     :-176.320608
 C44     -C42     -O48     -C53     :  -6.530210
 C44     -C43     -C41     -O47     : 176.820077
 H45     -C43     -C41     -O47     :  -1.934595
 H45     -C43     -C44     -H46     :   0.125456
 H46     -C44     -C42     -O48     :   2.496112
 C57     -P1      -Pd2     -C93     :-104.816835
 C57     -P1      -C74     -C75     : 173.690195
 C57     -P1      -C74     -C76     : -56.243858
 C57     -P1      -C74     -H77     :  61.324006
 C57     -C58     -C61     -C67     : -55.994489
 C57     -C58     -C61     -H68     :-178.687683
 C57     -C58     -C61     -H69     :  64.766256
 C57     -C59     -C64     -C67     :  56.369001
 C57     -C59     -C64     -H70     : 178.899148
 C57     -C59     -C64     -H71     : -64.460027
 C58     -C57     -P1      -C74     : 162.560040
 C58     -C57     -C59     -C64     : -56.529405
 C58     -C57     -C59     -H65     :  64.064714
 C58     -C57     -C59     -H66     :-178.783299
 C58     -C61     -C67     -C64     :  55.016933
 C58     -C61     -C67     -H72     : 177.866886
 C58     -C61     -C67     -H73     : -65.102829
 C59     -C57     -P1      -C74     : -74.969899
 C59     -C57     -C58     -C61     :  56.333067
 C59     -C57     -C58     -H62     : -64.072238
 C59     -C57     -C58     -H63     : 178.502892
 C59     -C64     -C67     -C61     : -55.236649
 C59     -C64     -C67     -H72     :-178.109726
 C59     -C64     -C67     -H73     :  64.911084
 H60     -C57     -P1      -C74     :  43.435919
 H60     -C57     -C58     -C61     : -62.363578
 H60     -C57     -C58     -H62     : 177.231117
 H60     -C57     -C58     -H63     :  59.806246
 H60     -C57     -C59     -C64     :  61.837183
 H60     -C57     -C59     -H65     :-177.568699
 H60     -C57     -C59     -H66     : -60.416711
 C61     -C67     -C64     -H70     :-177.367237
 C61     -C67     -C64     -H71     :  65.572767
 H62     -C58     -C61     -C67     :  64.394759
 H62     -C58     -C61     -H68     : -58.298435
 H62     -C58     -C61     -H69     :-174.844495
 H63     -C58     -C61     -C67     :-178.489047
 H63     -C58     -C61     -H68     :  58.817759
 H63     -C58     -C61     -H69     : -57.728301
 C64     -C67     -C61     -H68     : 177.338372
 C64     -C67     -C61     -H69     : -65.598242
 H65     -C59     -C64     -C67     : -64.066778
 H65     -C59     -C64     -H70     :  58.463369
 H65     -C59     -C64     -H71     : 175.104195
 H66     -C59     -C64     -C67     : 179.298402
 H66     -C59     -C64     -H70     : -58.171451
 H66     -C59     -C64     -H71     :  58.469375
 H68     -C61     -C67     -H72     : -59.811675
 H68     -C61     -C67     -H73     :  57.218610
 H69     -C61     -C67     -H72     :  57.251711
 H69     -C61     -C67     -H73     : 174.281996
 H70     -C64     -C67     -H72     :  59.759685
 H70     -C64     -C67     -H73     : -57.219505
 H71     -C64     -C67     -H72     : -57.300311
 H71     -C64     -C67     -H73     :-174.279501
 C74     -P1      -Pd2     -C93     :   5.846819
 C74     -C75     -C78     -C84     : -55.286503
 C74     -C75     -C78     -H85     :-178.211590
 C74     -C75     -C78     -H86     :  65.575632
 C74     -C76     -C81     -C84     :  56.817188
 C74     -C76     -C81     -H87     : 179.544511
 C74     -C76     -C81     -H88     : -64.005595
 C75     -C74     -C76     -C81     : -56.584608
 C75     -C74     -C76     -H82     :  63.867650
 C75     -C74     -C76     -H83     :-178.847913
 C75     -C78     -C84     -C81     :  54.242885
 C75     -C78     -C84     -H89     : 177.153113
 C75     -C78     -C84     -H90     : -65.824529
 C76     -C74     -C75     -C78     :  56.160613
 C76     -C74     -C75     -H79     : -65.021182
 C76     -C74     -C75     -H80     : 177.996511
 C76     -C81     -C84     -C78     : -55.251813
 C76     -C81     -C84     -H89     :-178.199883
 C76     -C81     -C84     -H90     :  64.844897
 H77     -C74     -C75     -C78     : -60.517158
 H77     -C74     -C75     -H79     : 178.301046
 H77     -C74     -C75     -H80     :  61.318740
 H77     -C74     -C76     -C81     :  59.499320
 H77     -C74     -C76     -H82     : 179.951578
 H77     -C74     -C76     -H83     : -62.763985
 C78     -C84     -C81     -H87     :-177.577392
 C78     -C84     -C81     -H88     :  65.547940
 H79     -C75     -C78     -C84     :  65.727637
 H79     -C75     -C78     -H85     : -57.197450
 H79     -C75     -C78     -H86     :-173.410228
 H80     -C75     -C78     -C84     :-177.217865
 H80     -C75     -C78     -H85     :  59.857049
 H80     -C75     -C78     -H86     : -56.355729
 C81     -C84     -C78     -H85     : 176.648066
 C81     -C84     -C78     -H86     : -66.224422
 H82     -C76     -C81     -C84     : -63.597549
 H82     -C76     -C81     -H87     :  59.129773
 H82     -C76     -C81     -H88     : 175.579667
 H83     -C76     -C81     -C84     : 179.717784
 H83     -C76     -C81     -H87     : -57.554894
 H83     -C76     -C81     -H88     :  58.895000
 H85     -C78     -C84     -H89     : -60.441705
 H85     -C78     -C84     -H90     :  56.580652
 H86     -C78     -C84     -H89     :  56.685807
 H86     -C78     -C84     -H90     : 173.708164
 H87     -C81     -C84     -H89     :  59.474537
 H87     -C81     -C84     -H90     : -57.480682
 H88     -C81     -C84     -H89     : -57.400131
 H88     -C81     -C84     -H90     :-174.355350
 C93     -C94     -C96     -C100    :  -2.417415
 C93     -C94     -C96     -H101    : 178.366032
 C93     -C95     -C98     -C100    :   2.460184
 C93     -C95     -C98     -H102    :-177.414793
 C94     -C93     -C95     -C98     :  -5.168009
 C94     -C93     -C95     -H99     : 177.404021
 C94     -C96     -C100    -C98     :  -0.135006
 C94     -C96     -C100    -F104    :-179.350519
 C95     -C93     -C94     -C96     :   5.149556
 C95     -C93     -C94     -H97     :-174.867667
 C95     -C98     -C100    -C96     :   0.115976
 C95     -C98     -C100    -F104    : 179.331180
 C96     -C100    -C98     -H102    : 179.989615
 H97     -C94     -C96     -C100    : 177.599970
 H97     -C94     -C96     -H101    :  -1.616583
 C98     -C100    -C96     -H101    : 179.074618
 H99     -C95     -C98     -C100    : 179.860376
 H99     -C95     -C98     -H102    :  -0.014601
 H101    -C96     -C100    -F104    :  -0.140895
 H102    -C98     -C100    -F104    :  -0.795182
 
  nuclear repulsion energy.......          7426.371913844 hartrees
  
  Detected an organometallic with only one TM atom. 
  
  Oxidation state on metal       2 is     2
  Formal multiplet on metal      2 is     1
  Formal charge on ligand        3 is    -1
  Formal multiplet on ligand     3 is     1
  Formal charge on ligand        4 is    -1
  Formal multiplet on ligand     4 is     1
  
 
  Will use High-Quality Initial guess for organometallics
       including d-d repulsion (iguess=30)
 
 Non-default options chosen:
   SCF calculation type: DFT(b3pw91-d3)              
   DFT=Becke_3_Parameter/HF+Slater+Becke88+PW91+PW-GGAIIC (B3PW91-D3)
   Transition state optimization
   Geometry will be optimized in redundant internal coordinates
   Culot/Fletcher trust radius adjustment
      initial trust radius:  0.100
   P-RFO level-shifting used
   Solvation energy will be computed using PBF
     -solute cavity energy will not be included
     -surface area terms will not be included
   Vibrational frequencies and related properties will be computed
      from analytic second derivatives
   IR intensities will be computed
   Thermochemical properties will be computed
   Maximum number of geometry steps: 100
   Scaling standard convergence criteria by a factor of   5.00
   Mixed Murtagh-Sargent/Powell Hessian-updating used
   Solvent: benzene                                                         
   Internal dielectric constant:    1.000
   Continuum dielectric constant:   2.283
   Solvent probe molecule radius:   2.600
  
 Non-default print settings:
     11=  2
  
 Temporary integer options set:
     21= -1  73=  2
  
  atom       vdw   vdw2    cov     mass  grid  daf  charge   basis
  P1        2.147  2.074  1.060   30.974    Y    Y      Y    ps_6-31g*
  Pd2       1.450  1.450  1.280  105.903    Y    Y      Y    lacv3p*
  Br3       2.095  2.095  1.140   78.918    Y    Y      Y    lav3p*
  C1        1.949  1.900  0.770   12.000    Y    Y      Y    ps_6-31g*
  C2        1.949  1.900  0.770   12.000    Y    Y      Y    ps_6-31g*
  C3        1.949  1.900  0.770   12.000    Y    Y      Y    ps_6-31g*
  C4        1.949  1.900  0.770   12.000    Y    Y      Y    ps_6-31g*
  C5        1.949  1.900  0.770   12.000    Y    Y      Y    ps_6-31g*
  C6        1.949  1.900  0.770   12.000    Y    Y      Y    ps_6-31g*
  H7        1.597  1.150  0.320    1.008    Y    Y      Y    ps_6-31g*
  H8        1.597  1.150  0.320    1.008    Y    Y      Y    ps_6-31g*
  C9        1.949  1.900  0.770   12.000    Y    Y      Y    ps_6-31g*
  C10       1.949  1.900  0.770   12.000    Y    Y      Y    ps_6-31g*
  C11       1.949  1.900  0.770   12.000    Y    Y      Y    ps_6-31g*
  H12       1.597  1.150  0.320    1.008    Y    Y      Y    ps_6-31g*
  H13       1.597  1.150  0.320    1.008    Y    Y      Y    ps_6-31g*
  H14       1.597  1.150  0.320    1.008    Y    Y      Y    ps_6-31g*
  H15       1.597  1.150  0.320    1.008    Y    Y      Y    ps_6-31g*
  H16       1.597  1.150  0.320    1.008    Y    Y      Y    ps_6-31g*
  H17       1.597  1.150  0.320    1.008    Y    Y      Y    ps_6-31g*
  H18       1.597  1.150  0.320    1.008    Y    Y      Y    ps_6-31g*
  C19       1.949  1.900  0.770   12.000    Y    Y      Y    ps_6-31g*
  C20       1.949  1.900  0.770   12.000    Y    Y      Y    ps_6-31g*
  C21       1.949  1.900  0.770   12.000    Y    Y      Y    ps_6-31g*
  H22       1.597  1.150  0.320    1.008    Y    Y      Y    ps_6-31g*
  H23       1.597  1.150  0.320    1.008    Y    Y      Y    ps_6-31g*
  H24       1.597  1.150  0.320    1.008    Y    Y      Y    ps_6-31g*
  H25       1.597  1.150  0.320    1.008    Y    Y      Y    ps_6-31g*
  H26       1.597  1.150  0.320    1.008    Y    Y      Y    ps_6-31g*
  H27       1.597  1.150  0.320    1.008    Y    Y      Y    ps_6-31g*
  H28       1.597  1.150  0.320    1.008    Y    Y      Y    ps_6-31g*
  C29       1.949  1.900  0.770   12.000    Y    Y      Y    ps_6-31g*
  C30       1.949  1.900  0.770   12.000    Y    Y      Y    ps_6-31g*
  C31       1.949  1.900  0.770   12.000    Y    Y      Y    ps_6-31g*
  H32       1.597  1.150  0.320    1.008    Y    Y      Y    ps_6-31g*
  H33       1.597  1.150  0.320    1.008    Y    Y      Y    ps_6-31g*
  H34       1.597  1.150  0.320    1.008    Y    Y      Y    ps_6-31g*
  H35       1.597  1.150  0.320    1.008    Y    Y      Y    ps_6-31g*
  H36       1.597  1.150  0.320    1.008    Y    Y      Y    ps_6-31g*
  H37       1.597  1.150  0.320    1.008    Y    Y      Y    ps_6-31g*
  H38       1.597  1.150  0.320    1.008    Y    Y      Y    ps_6-31g*
  C39       1.949  1.900  0.770   12.000    Y    Y      Y    ps_6-31g*
  C40       1.949  1.900  0.770   12.000    Y    Y      Y    ps_6-31g*
  C41       1.949  1.900  0.770   12.000    Y    Y      Y    ps_6-31g*
  C42       1.949  1.900  0.770   12.000    Y    Y      Y    ps_6-31g*
  C43       1.949  1.900  0.770   12.000    Y    Y      Y    ps_6-31g*
  C44       1.949  1.900  0.770   12.000    Y    Y      Y    ps_6-31g*
  H45       1.597  1.150  0.320    1.008    Y    Y      Y    ps_6-31g*
  H46       1.597  1.150  0.320    1.008    Y    Y      Y    ps_6-31g*
  O47       1.702  1.600  0.730   15.995    Y    Y      Y    ps_6-31g*
  O48       1.702  1.600  0.730   15.995    Y    Y      Y    ps_6-31g*
  C49       1.949  1.900  0.770   12.000    Y    Y      Y    ps_6-31g*
  H50       1.597  1.150  0.320    1.008    Y    Y      Y    ps_6-31g*
  H51       1.597  1.150  0.320    1.008    Y    Y      Y    ps_6-31g*
  H52       1.597  1.150  0.320    1.008    Y    Y      Y    ps_6-31g*
  C53       1.949  1.900  0.770   12.000    Y    Y      Y    ps_6-31g*
  H54       1.597  1.150  0.320    1.008    Y    Y      Y    ps_6-31g*
  H55       1.597  1.150  0.320    1.008    Y    Y      Y    ps_6-31g*
  H56       1.597  1.150  0.320    1.008    Y    Y      Y    ps_6-31g*
  C57       1.949  1.900  0.770   12.000    Y    Y      Y    ps_6-31g*
  C58       1.949  1.900  0.770   12.000    Y    Y      Y    ps_6-31g*
  C59       1.949  1.900  0.770   12.000    Y    Y      Y    ps_6-31g*
  H60       1.597  1.150  0.320    1.008    Y    Y      Y    ps_6-31g*
  C61       1.949  1.900  0.770   12.000    Y    Y      Y    ps_6-31g*
  H62       1.597  1.150  0.320    1.008    Y    Y      Y    ps_6-31g*
  H63       1.597  1.150  0.320    1.008    Y    Y      Y    ps_6-31g*
  C64       1.949  1.900  0.770   12.000    Y    Y      Y    ps_6-31g*
  H65       1.597  1.150  0.320    1.008    Y    Y      Y    ps_6-31g*
  H66       1.597  1.150  0.320    1.008    Y    Y      Y    ps_6-31g*
  C67       1.949  1.900  0.770   12.000    Y    Y      Y    ps_6-31g*
  H68       1.597  1.150  0.320    1.008    Y    Y      Y    ps_6-31g*
  H69       1.597  1.150  0.320    1.008    Y    Y      Y    ps_6-31g*
  H70       1.597  1.150  0.320    1.008    Y    Y      Y    ps_6-31g*
  H71       1.597  1.150  0.320    1.008    Y    Y      Y    ps_6-31g*
  H72       1.597  1.150  0.320    1.008    Y    Y      Y    ps_6-31g*
  H73       1.597  1.150  0.320    1.008    Y    Y      Y    ps_6-31g*
  C74       1.949  1.900  0.770   12.000    Y    Y      Y    ps_6-31g*
  C75       1.949  1.900  0.770   12.000    Y    Y      Y    ps_6-31g*
  C76       1.949  1.900  0.770   12.000    Y    Y      Y    ps_6-31g*
  H77       1.597  1.150  0.320    1.008    Y    Y      Y    ps_6-31g*
  C78       1.949  1.900  0.770   12.000    Y    Y      Y    ps_6-31g*
  H79       1.597  1.150  0.320    1.008    Y    Y      Y    ps_6-31g*
  H80       1.597  1.150  0.320    1.008    Y    Y      Y    ps_6-31g*
  C81       1.949  1.900  0.770   12.000    Y    Y      Y    ps_6-31g*
  H82       1.597  1.150  0.320    1.008    Y    Y      Y    ps_6-31g*
  H83       1.597  1.150  0.320    1.008    Y    Y      Y    ps_6-31g*
  C84       1.949  1.900  0.770   12.000    Y    Y      Y    ps_6-31g*
  H85       1.597  1.150  0.320    1.008    Y    Y      Y    ps_6-31g*
  H86       1.597  1.150  0.320    1.008    Y    Y      Y    ps_6-31g*
  H87       1.597  1.150  0.320    1.008    Y    Y      Y    ps_6-31g*
  H88       1.597  1.150  0.320    1.008    Y    Y      Y    ps_6-31g*
  H89       1.597  1.150  0.320    1.008    Y    Y      Y    ps_6-31g*
  H90       1.597  1.150  0.320    1.008    Y    Y      Y    ps_6-31g*
  C93       1.949  1.900  0.770   12.000    Y    Y      Y    ps_6-31g*
  C94       1.949  1.900  0.770   12.000    Y    Y      Y    ps_6-31g*
  C95       1.949  1.900  0.770   12.000    Y    Y      Y    ps_6-31g*
  C96       1.949  1.900  0.770   12.000    Y    Y      Y    ps_6-31g*
  H97       1.597  1.150  0.320    1.008    Y    Y      Y    ps_6-31g*
  C98       1.949  1.900  0.770   12.000    Y    Y      Y    ps_6-31g*
  H99       1.597  1.150  0.320    1.008    Y    Y      Y    ps_6-31g*
  C100      1.949  1.900  0.770   12.000    Y    Y      Y    ps_6-31g*
  H101      1.597  1.150  0.320    1.008    Y    Y      Y    ps_6-31g*
  H102      1.597  1.150  0.320    1.008    Y    Y      Y    ps_6-31g*
  F104      1.736  1.682  0.720   18.998    Y    Y      Y    ps_6-31g*
 
  atom      formal  2spin      esp    mulk    frag
  P1           0       0        Y    0.000       0
  Pd2          2       0        Y    0.000       0
  Br3         -1       0        Y    0.000       0
  C93         -1       0        Y    0.000       0
  
  end of program pre
   
 Time(pre)  user:       4.686  user+sys:       4.686  wallclock:       1.834
  
  start of program onee
  
  smallest eigenvalue of S:    2.959E-04
  number of canonical orbitals.....          786
  end of program onee
   
 Time(onee)  user:      18.464  user+sys:      18.464  wallclock:       3.146
  
  start of program hfig
  
  initial wavefunction generated automatically from atomic wavefunctions
  Only one state below 0.010000
  Skip d-d repulsion considerations 
 
  Irreducible     Total no   No of occupied orbitals 
  representation  orbitals   Shell_1  Shell_2    ...
  No Symm          786        184
  ------------------------
  Orbital occupation/shell    1.000
 
  end of program hfig
   
 Time(hfig)  user:       3.269  user+sys:       3.269  wallclock:       1.428
  
  start of program probe
  
  end of program probe
   
 Time(probe)  user:       1.994  user+sys:       1.994  wallclock:       0.717
  
  start of program grid
  
   grid     grid set  grid #  grid sym
  ------    --------  ------  --------
  coarse        0        0        1
  medium        2        1        1
  fine          0        0        1
  ultrafine     4        2        1
  charge       -1        3        1
  gradient      4        2        1
  density       0        0        1
  DFT-fine    -11        4        1
  DFT-med.    -10        5        1
  DFT-grad    -12        6        1
  DFT-der2     -8        7        1
  DFT-cphf     -9        8        1
  LMP2-enrg     4        2        1
  LMP2-grad     2        1        1
  DFT-cphf2   -15        9        1
  PBF-dens      0        0        1
  plotting      0        0        1
  Rel-grad    -17        0        1
  
  number of gridpoints: 
     atom           P1         Pd2         Br3          C1          C2          C3          C4
  grid # 1         613         359         499         100          98          95         100
  grid # 2         432         332         476         360         359         326         359
  grid # 3           9         256         316           7           9          17          11
  grid # 4        8714        8714        8714        8714        8714        8714        8714
  grid # 5        1192        1192        1192        1192        1192        1192        1192
  grid # 6        9132        9132        9132        5922        5922        5922        5922
  grid # 7       23034       32968       11582       13950       13950       13950       13950
  grid # 8         722        1150         694         748         748         748         748
  grid # 9         366        2198         358         394         394         394         394
   
  number of gridpoints: 
     atom           C5          C6          H7          H8          C9         C10         C11
  grid # 1          95          98         104         104          91          79          81
  grid # 2         326         359         434         421         303         241         238
  grid # 3          16           9         130          79           6           6           6
  grid # 4        8714        8714        8714        8714        8714        8714        8714
  grid # 5        1192        1192        1192        1192        1192        1192        1192
  grid # 6        5922        5922        5922        5922        5922        5922        5922
  grid # 7       13950       13950       15206       15206       13950       13950       13950
  grid # 8         748         748         786         786         748         748         748
  grid # 9         394         394         420         420         394         394         394
   
  number of gridpoints: 
     atom          H12         H13         H14         H15         H16         H17         H18
  grid # 1         102         103         107         107         105         108         110
  grid # 2         422         434         443         442         434         450         455
  grid # 3          52          90         239         225         150         264         316
  grid # 4        8714        8714        8714        8714        8714        8714        8714
  grid # 5        1192        1192        1192        1192        1192        1192        1192
  grid # 6        5922        5922        5922        5922        5922        5922        5922
  grid # 7       15206       15206       15206       15206       15206       15206       15206
  grid # 8         786         786         786         786         786         786         786
  grid # 9         420         420         420         420         420         420         420
   
  number of gridpoints: 
     atom          C19         C20         C21         H22         H23         H24         H25
  grid # 1          90          80          80         109         107         110         104
  grid # 2         303         240         242         444         443         453         439
  grid # 3           6           6           6         215         185         319         183
  grid # 4        8714        8714        8714        8714        8714        8714        8714
  grid # 5        1192        1192        1192        1192        1192        1192        1192
  grid # 6        5922        5922        5922        5922        5922        5922        5922
  grid # 7       13950       13950       13950       15206       15206       15206       15206
  grid # 8         748         748         748         786         786         786         786
  grid # 9         394         394         394         420         420         420         420
   
  number of gridpoints: 
     atom          H26         H27         H28         C29         C30         C31         H32
  grid # 1         110         108         109          90          81          79         105
  grid # 2         458         446         454         303         241         240         425
  grid # 3         328         237         317           6           6           6          84
  grid # 4        8714        8714        8714        8714        8714        8714        8714
  grid # 5        1192        1192        1192        1192        1192        1192        1192
  grid # 6        5922        5922        5922        5922        5922        5922        5922
  grid # 7       15206       15206       15206       13950       13950       13950       15206
  grid # 8         786         786         786         748         748         748         786
  grid # 9         420         420         420         394         394         394         420
   
  number of gridpoints: 
     atom          H33         H34         H35         H36         H37         H38         C39
  grid # 1         103         109         107         100         105         107          98
  grid # 2         432         457         447         425         438         446         350
  grid # 3         136         320         249          66         207         248           6
  grid # 4        8714        8714        8714        8714        8714        8714        8714
  grid # 5        1192        1192        1192        1192        1192        1192        1192
  grid # 6        5922        5922        5922        5922        5922        5922        5922
  grid # 7       15206       15206       15206       15206       15206       15206       13950
  grid # 8         786         786         786         786         786         786         748
  grid # 9         420         420         420         420         420         420         394
   
  number of gridpoints: 
     atom          C40         C41         C42         C43         C44         H45         H46
  grid # 1          95          92          92          96          96         110         111
  grid # 2         387         346         344         324         325         443         441
  grid # 3           9          13          17          33          37         250         245
  grid # 4        8714        8714        8714        8714        8714        8714        8714
  grid # 5        1192        1192        1192        1192        1192        1192        1192
  grid # 6        5922        5922        5922        5922        5922        5922        5922
  grid # 7       13950       13950       13950       13950       13950       15206       15206
  grid # 8         748         748         748         748         748         786         786
  grid # 9         394         394         394         394         394         420         420
   
  number of gridpoints: 
     atom          O47         O48         C49         H50         H51         H52         C53
  grid # 1         116         116          76         109         111         109          74
  grid # 2         443         433         223         445         461         446         225
  grid # 3          27          11           6         267         352         270           6
  grid # 4        8714        8714        8714        8714        8714        8714        8714
  grid # 5        1192        1192        1192        1192        1192        1192        1192
  grid # 6        5922        5922        5922        5922        5922        5922        5922
  grid # 7       23382       23382       13950       15206       15206       15206       13950
  grid # 8         774         774         748         786         786         786         748
  grid # 9         416         416         394         420         420         420         394
   
  number of gridpoints: 
     atom          H54         H55         H56         C57         C58         C59         H60
  grid # 1         111         109         109          80          90          90         100
  grid # 2         449         455         447         328         283         280         420
  grid # 3         294         300         283           6           6           6          59
  grid # 4        8714        8714        8714        8714        8714        8714        8714
  grid # 5        1192        1192        1192        1192        1192        1192        1192
  grid # 6        5922        5922        5922        5922        5922        5922        5922
  grid # 7       15206       15206       15206       13950       13950       13950       15206
  grid # 8         786         786         786         748         748         748         786
  grid # 9         420         420         420         394         394         394         420
   
  number of gridpoints: 
     atom          C61         H62         H63         C64         H65         H66         C67
  grid # 1          92         101         105          92         104         105          92
  grid # 2         280         422         435         280         438         434         278
  grid # 3           6          44         136           6         110         164           6
  grid # 4        8714        8714        8714        8714        8714        8714        8714
  grid # 5        1192        1192        1192        1192        1192        1192        1192
  grid # 6        5922        5922        5922        5922        5922        5922        5922
  grid # 7       13950       15206       15206       13950       15206       15206       13950
  grid # 8         748         786         786         748         786         786         748
  grid # 9         394         420         420         394         420         420         394
   
  number of gridpoints: 
     atom          H68         H69         H70         H71         H72         H73         C74
  grid # 1         112         110         112         110         112         110          82
  grid # 2         456         449         455         453         456         452         329
  grid # 3         311         231         324         256         331         247           6
  grid # 4        8714        8714        8714        8714        8714        8714        8714
  grid # 5        1192        1192        1192        1192        1192        1192        1192
  grid # 6        5922        5922        5922        5922        5922        5922        5922
  grid # 7       15206       15206       15206       15206       15206       15206       13950
  grid # 8         786         786         786         786         786         786         748
  grid # 9         420         420         420         420         420         420         394
   
  number of gridpoints: 
     atom          C75         C76         H77         C78         H79         H80         C81
  grid # 1          91          92          99          92         102          99          92
  grid # 2         283         279         425         278         429         424         280
  grid # 3           6           6          77           6          88          55           6
  grid # 4        8714        8714        8714        8714        8714        8714        8714
  grid # 5        1192        1192        1192        1192        1192        1192        1192
  grid # 6        5922        5922        5922        5922        5922        5922        5922
  grid # 7       13950       13950       15206       13950       15206       15206       13950
  grid # 8         748         748         786         748         786         786         748
  grid # 9         394         394         420         394         420         420         394
   
  number of gridpoints: 
     atom          H82         H83         C84         H85         H86         H87         H88
  grid # 1         105         105          92         111         108         112         110
  grid # 2         435         429         278         447         446         455         450
  grid # 3         121         120           6         257         205         323         257
  grid # 4        8714        8714        8714        8714        8714        8714        8714
  grid # 5        1192        1192        1192        1192        1192        1192        1192
  grid # 6        5922        5922        5922        5922        5922        5922        5922
  grid # 7       15206       15206       13950       15206       15206       15206       15206
  grid # 8         786         786         748         786         786         786         786
  grid # 9         420         420         394         420         420         420         420
   
  number of gridpoints: 
     atom          H89         H90         C93         C94         C95         C96         H97
  grid # 1         112         110          96          96          95          94         114
  grid # 2         456         454         392         323         321         325         460
  grid # 3         331         267          19          31          24          35         291
  grid # 4        8714        8714        8714        8714        8714        8714        8714
  grid # 5        1192        1192        1192        1192        1192        1192        1192
  grid # 6        5922        5922        5922        5922        5922        5922        5922
  grid # 7       15206       15206       13950       13950       13950       13950       15206
  grid # 8         786         786         748         748         748         748         786
  grid # 9         420         420         394         394         394         394         420
   
  number of gridpoints: 
     atom          C98         H99        C100        H101        H102        F104       total
  grid # 1          94         105          80         115         113         584       12098
  grid # 2         324         425         330         467         458         562       40372
  grid # 3          32          53          41         385         297         339       13702
  grid # 4        8714        8714        8714        8714        8714        8714      906256
  grid # 5        1192        1192        1192        1192        1192        1192      123968
  grid # 6        5922        5922        5922        5922        5922        5922      625518
  grid # 7       13950       15206       13950       15206       15206       23190     1576230
  grid # 8         748         786         748         786         786         770       80354
  grid # 9         394         420         394         420         420         420       44268
   
  end of program grid
   
 Time(grid)  user:     833.868  user+sys:     833.868  wallclock:      56.090
  
  start of program rwr
  
  end of program rwr
   
 Time(rwr)  user:      71.466  user+sys:      71.466  wallclock:      19.915
  
  start of program scf
  
 number of electrons..........        368
 number of alpha electrons....        184
 number of beta electrons.....        184
 number of orbitals, total....        786
 number of doubly-occ'd orbs..        184
 number of open shell orbs....          0
 number of occupied orbitals..        184
 number of virtual orbitals...        602
 number of hamiltonians.......          1
 number of shells.............          1
 SCF type: DFT=Becke_3_Parameter/HF+Slater+Becke88+PW91+PW-GGAIIC (B3PW91-D3)
 Energy computed using pseudospectral method.
 Convergence Criterion:
    Energy (econv):       1.00E-05
    RMS density (dconv):  5.00E-06
  
       i  u  d  i  g                   
       t  p  i  c  r                                 RMS    maximum
       e  d  i  u  i                       energy  density   DIIS  
       r  t  s  t  d       total energy    change  change    error 
  
etot    1  N  N  5  M   -2321.44934341893           1.8E-03  1.3E-01
etot    2  Y  Y  6  M   -2325.64431504787  4.2E+00  3.0E-03  8.1E-02
etot    3  Y  Y  6  M   -2326.82768428309  1.2E+00  2.0E-03  6.8E-02
etot    4  N  Y  2  U   -2326.91897812269  9.1E-02  1.1E-03  7.1E-02
etot    5  Y  Y  6  M   -2327.55688709726  6.4E-01  6.5E-04  3.3E-02
etot    6  N  Y  2  U   -2327.59655571103  4.0E-02  5.5E-04  1.5E-02
etot    7  Y  Y  6  M   -2327.59659722020  4.2E-05  1.5E-04  4.9E-03
etot    8  Y  Y  6  M   -2327.60204312603  5.4E-03  6.4E-05  2.3E-03
etot    9  N  Y  2  U   -2327.60417647214  2.1E-03  1.5E-05  3.6E-04
etot   10  N  Y  2  U   -2327.60421637067  4.0E-05  8.1E-06  1.6E-04
etot   11  N  Y  2  U   -2327.60422857479  1.2E-05  3.9E-06  1.1E-04
etot   12  N  N  2  U   -2327.60423194705  3.4E-06  0.0E+00  0.0E+00
 
  Computing the dispersion energy correction and its gradients...
  
  
 Energy components, in hartrees:
   (A)  Nuclear repulsion............    7426.37191384442
   (E)  Total one-electron terms.....  -18027.94777691801
   (F)    Electron-nuclear...........  -20253.34585878809
   (H)    Kinetic....................    2225.39808187008
   (I)  Total two-electron terms.....    8273.97163112654
   (J)    Coulomb....................    8583.74171124957
   (K)    Exchange+Correlation.......    -309.77008012303
   (L)  Electronic energy............   -9753.97614579147  (E+I)
   (N0) D3 correction................      -0.19704752953
   (N)  Total energy.................   -2327.80127947657  (A+L+N0)
   (O)  Gas phase energy.............   -2327.80127947657
  
 SCFE: SCF energy: DFT(b3pw91-d3)     -2327.80127947657 hartrees   iterations:  12
  
 
 HOMO energy:    -0.18639
 LUMO energy:    -0.06181
 
  Orbital energies (hartrees): 
   -77.05731   -24.68855   -19.17624   -19.17003   -10.25259   -10.24250
   -10.23529   -10.23166   -10.22466   -10.21997   -10.19623   -10.19257
   -10.18391   -10.18386   -10.18228   -10.17964   -10.17750   -10.17671
   -10.17605   -10.17260   -10.17078   -10.16775   -10.16730   -10.16605
   -10.16581   -10.16301   -10.16002   -10.15981   -10.15952   -10.15812
   -10.15743   -10.15739   -10.15731   -10.15673   -10.15621   -10.15588
   -10.15513   -10.15155   -10.14894   -10.14652   -10.14436   -10.14399
   -10.14378   -10.14143   -10.13509    -6.55787    -4.71635    -4.71533
    -4.71209    -3.28326    -2.02313    -2.00107    -1.99529    -1.22584
    -1.08162    -1.07335    -0.87228    -0.86325    -0.85229    -0.83501
    -0.82861    -0.80711    -0.80331    -0.77783    -0.77710    -0.76371
    -0.75746    -0.75383    -0.75232    -0.74040    -0.73893    -0.73573
    -0.72893    -0.71238    -0.70975    -0.69792    -0.69120    -0.67704
    -0.67601    -0.67064    -0.65216    -0.62848    -0.62352    -0.62003
    -0.60938    -0.60854    -0.60287    -0.59991    -0.59795    -0.58791
    -0.58540    -0.56237    -0.55411    -0.55117    -0.54342    -0.54150
    -0.53082    -0.52563    -0.51862    -0.51436    -0.48869    -0.48834
    -0.48443    -0.48179    -0.47349    -0.47046    -0.46849    -0.46725
    -0.46129    -0.45292    -0.45078    -0.44533    -0.44203    -0.43816
    -0.43728    -0.43526    -0.43405    -0.43211    -0.43096    -0.43000
    -0.42766    -0.42626    -0.42055    -0.41963    -0.41738    -0.41109
    -0.40943    -0.40579    -0.39895    -0.39681    -0.39572    -0.39341
    -0.38419    -0.38172    -0.37969    -0.37857    -0.37701    -0.37432
    -0.37321    -0.37240    -0.36884    -0.36427    -0.36171    -0.36019
    -0.35416    -0.35024    -0.34817    -0.34696    -0.34471    -0.34352
    -0.34055    -0.33841    -0.33682    -0.33359    -0.33229    -0.32964
    -0.32888    -0.32823    -0.32578    -0.31750    -0.31494    -0.31178
    -0.31003    -0.30639    -0.29988    -0.29932    -0.29792    -0.29757
    -0.29147    -0.28955    -0.28140    -0.27232    -0.26753    -0.26400
    -0.25850    -0.25324    -0.23247    -0.22475    -0.21758    -0.21222
    -0.21115    -0.20771    -0.19048    -0.18639    -0.06181    -0.03180
    -0.01344    -0.00122     0.00266     0.00783     0.01153     0.03958
     0.04801     0.06068
 
  end of program scf
   
 Time(scf)  user:     971.669  user+sys:     971.669  wallclock:      91.262
  
  start of program der1a
  
  end of program der1a
   
 Time(der1a)  user:      53.283  user+sys:      53.283  wallclock:       4.709
  
  start of program rwr
  
  end of program rwr
   
 Time(rwr)  user:      61.299  user+sys:      61.299  wallclock:      23.869
  
  start of program der1b
  
   
  forces (hartrees/bohr) : total     
   
 atom  label           x              y              z
 ---- --------   -------------  -------------  -------------
    1 P1         -2.886322E-04   1.210838E-04   4.818940E-03
    2 Pd2        -1.004302E-03  -1.369836E-04   1.020917E-03
    3 Br3        -7.481775E-03  -6.100270E-04  -4.940994E-03
    4 C1         -2.762239E-04   5.529621E-05   2.080065E-04
    5 C2          7.538791E-04  -1.533778E-04   3.293178E-05
    6 C3         -2.945701E-03  -9.099678E-04  -1.574161E-03
    7 C4         -3.476420E-04  -5.208809E-04  -1.146692E-04
    8 C5          3.217682E-03  -5.715461E-04  -1.990732E-03
    9 C6         -7.123751E-04  -4.131457E-04   3.858330E-04
   10 H7          9.300858E-04  -9.938903E-05   4.551888E-04
   11 H8         -1.255607E-03   2.690373E-04   5.340451E-04
   12 C9          4.236844E-04   1.130325E-03   2.443669E-03
   13 C10        -2.096578E-03   1.718043E-03  -1.150567E-03
   14 C11        -1.099645E-03  -2.067004E-03   5.799815E-04
   15 H12        -7.279630E-04  -1.000761E-03  -1.517763E-03
   16 H13        -9.949680E-04  -7.829250E-04   2.328869E-04
   17 H14         3.710518E-04   4.324437E-05  -6.178813E-04
   18 H15         1.673393E-06   2.955724E-04   5.449136E-04
   19 H16        -7.042754E-04  -1.273534E-04  -2.202216E-04
   20 H17         1.810716E-05   1.220825E-04   8.207017E-04
   21 H18         5.238640E-04  -4.797509E-04  -2.279659E-04
   22 C19        -2.488788E-03  -4.614759E-04  -4.974193E-04
   23 C20         1.524833E-03   1.373073E-03  -1.770741E-03
   24 C21         1.151962E-03  -2.034840E-03  -5.009496E-04
   25 H22         6.939514E-04   3.712993E-05   1.731435E-04
   26 H23         7.185180E-04  -7.132787E-04  -5.889227E-04
   27 H24         4.784084E-05   4.033289E-04   3.902542E-04
   28 H25        -7.559087E-04   1.272090E-04  -3.899803E-04
   29 H26         3.504124E-04  -4.446209E-05  -5.600396E-04
   30 H27        -6.205266E-04  -3.139363E-04  -1.661951E-04
   31 H28         1.390776E-04  -5.798285E-05   6.546636E-04
   32 C29        -3.904030E-05   1.154927E-03   2.262265E-03
   33 C30         1.032279E-03  -2.096981E-03   6.729492E-04
   34 C31         1.915643E-03   1.760605E-03  -1.513232E-03
   35 H32         5.351320E-04  -8.016870E-04  -1.024902E-03
   36 H33         7.897028E-04  -1.605390E-04  -2.572205E-04
   37 H34        -4.912887E-04  -4.182249E-04  -2.591845E-04
   38 H35         3.639894E-05   3.913380E-05   7.791947E-04
   39 H36         1.168132E-03  -8.309589E-04   2.485909E-04
   40 H37        -5.806082E-05   5.393407E-04   4.527422E-04
   41 H38        -2.855813E-04  -1.746188E-04  -5.321874E-04
   42 C39         2.110998E-04  -7.022600E-04   7.282970E-04
   43 C40         1.547946E-04  -3.130306E-05  -3.671987E-04
   44 C41        -1.192008E-05   2.190315E-03   6.284893E-04
   45 C42        -1.204438E-04  -1.166053E-03  -1.201669E-03
   46 C43         4.296603E-04  -2.626885E-03   2.021227E-03
   47 C44         6.168021E-05  -5.085733E-04   3.731236E-03
   48 H45        -1.265891E-04   8.700576E-04  -5.323723E-04
   49 H46         1.058816E-04  -2.017352E-05  -1.171118E-03
   50 O47         3.482611E-05   7.481000E-04  -3.898265E-03
   51 O48        -6.807462E-04   2.164280E-03  -3.132774E-03
   52 C49         2.830004E-04  -4.447766E-03   2.258468E-03
   53 H50        -6.201585E-04  -7.470047E-04  -2.499293E-04
   54 H51         3.202155E-05  -6.803016E-04   6.476435E-04
   55 H52         7.227345E-04  -6.508036E-04  -2.407365E-04
   56 C53         3.778254E-04   8.675475E-04   5.038519E-03
   57 H54         3.521076E-04   7.329640E-04   4.121723E-04
   58 H55        -1.866124E-04  -3.127835E-04   1.035111E-03
   59 H56        -6.676860E-04   4.039194E-04   4.688761E-04
   60 C57         2.360974E-03   1.205708E-04   1.526893E-03
   61 C58        -5.955995E-04  -2.876636E-03   1.042049E-06
   62 C59         1.385110E-03   1.764580E-03  -2.174601E-03
   63 H60        -4.930252E-04  -4.856088E-04  -1.207135E-03
   64 C61        -2.054341E-03  -1.210320E-03   2.243753E-03
   65 H62        -1.034372E-04   2.124104E-04   1.174899E-03
   66 H63        -6.563345E-04   9.056817E-04  -4.848308E-04
   67 C64        -1.331629E-04   3.038456E-03  -6.175261E-06
   68 H65        -2.225597E-04   6.312200E-04   1.065364E-03
   69 H66        -8.777962E-04  -2.739377E-04   3.713436E-05
   70 C67        -2.790708E-03   1.008655E-03  -5.527707E-04
   71 H68         3.992203E-04   4.106065E-04   1.413586E-05
   72 H69        -2.378078E-04  -2.706114E-04  -6.401464E-04
   73 H70         5.653838E-05  -3.832660E-04   4.196362E-04
   74 H71        -2.118794E-04  -2.454786E-04  -7.213799E-04
   75 H72         3.905670E-04  -3.015477E-04  -2.958750E-04
   76 H73         9.486685E-05   2.545632E-04   5.612254E-04
   77 C74        -2.053659E-03   1.407503E-03  -1.798519E-03
   78 C75         5.668232E-04  -2.474059E-03  -2.298660E-03
   79 C76        -1.429891E-03  -3.541627E-04   2.777640E-03
   80 H77         4.816527E-04  -1.089703E-03   6.381279E-04
   81 C78         1.693672E-03   5.618243E-04  -2.246420E-03
   82 H79         3.404867E-05   7.523275E-04  -5.533436E-04
   83 H80         7.796025E-04   4.204475E-04   1.815030E-03
   84 C81        -1.083172E-04   2.481790E-03   1.991767E-03
   85 H82        -4.124857E-04   1.001955E-03  -1.809951E-04
   86 H83         1.109060E-03  -4.186022E-04  -3.027849E-04
   87 C84         2.931690E-03   5.507715E-04   1.100864E-03
   88 H85        -2.917123E-04   3.581205E-04   2.994758E-04
   89 H86         2.578359E-04  -5.047901E-04   2.948630E-04
   90 H87        -9.599344E-05  -1.144355E-04  -6.103336E-04
   91 H88         2.592380E-04  -6.001575E-04   3.448145E-04
   92 H89        -3.289610E-04  -4.178497E-04   3.291560E-05
   93 H90        -1.546631E-04   5.829549E-04  -3.441022E-04
   94 C93         8.498415E-03   3.808328E-03  -2.215381E-03
   95 C94        -5.153939E-03   4.370607E-03   6.785323E-04
   96 C95        -1.367096E-03  -6.441754E-03  -1.629310E-03
   97 C96        -8.023639E-04  -2.898346E-03  -9.066819E-05
   98 H97        -6.726032E-05  -4.513802E-04   1.540154E-04
   99 C98        -2.409216E-03   1.768272E-03   9.354667E-04
  100 H99        -3.011374E-04   1.094654E-03  -5.878049E-05
  101 C100        2.221268E-02   8.669662E-03  -4.020758E-03
  102 H101       -2.394345E-03   4.777988E-04   7.481548E-04
  103 H102       -1.473348E-03  -1.969994E-03   1.129762E-04
  104 F104       -6.544301E-03  -2.688605E-03   9.521935E-04
 -------------   -------------  -------------  -------------
     total        1.767155E-03  -5.268748E-04   9.598133E-04
   
  end of program der1b
   
 Time(der1b)  user:     300.467  user+sys:     300.467  wallclock:      26.600
  
  start of program geopt
  
 ----------------------------------------------------------------------------
  Geometry optimization step  1
  Total energy:     -2327.80127947657 hartrees
 ----------------------------------------------------------------------------
  
  Hessian eigenvalues: 
    0.00000E+00    0.00000E+00    0.00000E+00    0.00000E+00    0.00000E+00
    0.00000E+00    0.00000E+00    0.00000E+00    0.00000E+00    0.00000E+00
    0.00000E+00    0.00000E+00    0.00000E+00    0.00000E+00    0.00000E+00
    0.00000E+00    0.00000E+00    0.00000E+00    0.00000E+00    0.00000E+00
    0.00000E+00    0.00000E+00    0.00000E+00    0.00000E+00    0.00000E+00
    0.00000E+00    0.00000E+00    0.00000E+00    0.00000E+00    0.00000E+00
    0.00000E+00    0.00000E+00    0.00000E+00    0.00000E+00    0.00000E+00
    0.00000E+00    0.00000E+00    0.00000E+00    0.00000E+00    0.00000E+00
    0.00000E+00    0.00000E+00    0.00000E+00    3.38184E-03    5.55659E-03
    6.62846E-03    1.06910E-02    1.27386E-02    1.28605E-02    1.30547E-02
    1.35925E-02    1.39233E-02    1.39963E-02    1.83215E-02    1.84548E-02
    1.85078E-02    1.98099E-02    2.00729E-02    2.02420E-02    2.03406E-02
    2.14962E-02    2.62263E-02    2.67411E-02    2.72587E-02    3.02308E-02
    3.04291E-02    3.10407E-02    3.27360E-02    3.27853E-02    3.30780E-02
    3.31576E-02    3.53131E-02    3.62927E-02    3.70990E-02    4.13668E-02
    4.25681E-02    4.36321E-02    4.82396E-02    4.99635E-02    5.33411E-02
    5.99657E-02    6.12404E-02    6.83986E-02    7.27633E-02    7.35957E-02
    7.40618E-02    7.43117E-02    7.48014E-02    7.53327E-02    7.93044E-02
    8.11020E-02    8.14993E-02    8.37687E-02    8.37856E-02    8.42160E-02
    8.55804E-02    8.88911E-02    9.88178E-02    1.00211E-01    1.00901E-01
    1.01583E-01    1.02224E-01    1.13404E-01    1.14292E-01    1.15256E-01
    1.24674E-01    1.26552E-01    1.27383E-01    1.30446E-01    1.30826E-01
    1.30983E-01    1.31203E-01    1.31212E-01    1.31495E-01    1.32100E-01
    1.38040E-01    1.38352E-01    1.38394E-01    1.40609E-01    1.41098E-01
    1.44470E-01    1.48465E-01    1.48952E-01    1.49811E-01    1.51407E-01
    1.57417E-01    1.58221E-01    1.60358E-01    1.60811E-01    1.60852E-01
    1.62318E-01    1.68448E-01    1.72997E-01    1.75393E-01    1.75946E-01
    1.86426E-01    1.95049E-01    1.99214E-01    2.04695E-01    2.06616E-01
    2.06949E-01    2.14843E-01    2.18939E-01    2.19378E-01    2.19696E-01
    2.23441E-01    2.26963E-01    2.27526E-01    2.28428E-01    2.28994E-01
    2.30383E-01    2.31675E-01    2.32443E-01    2.33268E-01    2.34360E-01
    2.35355E-01    2.35604E-01    2.35906E-01    2.36073E-01    2.36472E-01
    2.36847E-01    2.37159E-01    2.37295E-01    2.37775E-01    2.38332E-01
    2.38679E-01    2.39027E-01    2.39721E-01    2.40105E-01    2.40137E-01
    2.40259E-01    2.40284E-01    2.40359E-01    2.40474E-01    2.42335E-01
    2.42389E-01    2.42404E-01    2.42630E-01    2.43790E-01    2.47201E-01
    2.47837E-01    2.48138E-01    2.48440E-01    2.50440E-01    2.52971E-01
    2.54694E-01    2.58247E-01    2.60202E-01    2.61633E-01    2.61710E-01
    2.61749E-01    2.68198E-01    2.73403E-01    2.76953E-01    2.78101E-01
    2.87789E-01    2.89465E-01    2.89789E-01    2.91280E-01    2.95352E-01
    2.96450E-01    2.97734E-01    2.98379E-01    2.99456E-01    3.00486E-01
    3.03114E-01    3.06387E-01    3.14309E-01    3.15009E-01    3.19360E-01
    3.20555E-01    3.21828E-01    3.23720E-01    3.26597E-01    3.26718E-01
    3.27558E-01    3.29761E-01    3.30263E-01    3.30319E-01    3.30380E-01
    3.30405E-01    3.30604E-01    3.30795E-01    3.31325E-01    3.31811E-01
    3.31937E-01    3.32349E-01    3.32364E-01    3.32443E-01    3.32588E-01
    3.32868E-01    3.33180E-01    3.33267E-01    3.33291E-01    3.33314E-01
    3.33380E-01    3.33593E-01    3.33616E-01    3.33748E-01    3.33792E-01
    3.33884E-01    3.33885E-01    3.33946E-01    3.33970E-01    3.34093E-01
    3.34127E-01    3.34301E-01    3.34318E-01    3.34322E-01    3.34494E-01
    3.35015E-01    3.35276E-01    3.35794E-01    3.35859E-01    3.36070E-01
    3.36257E-01    3.36333E-01    3.36683E-01    3.36871E-01    3.37117E-01
    3.37177E-01    3.37438E-01    3.38269E-01    3.38664E-01    3.38830E-01
    3.38950E-01    3.39120E-01    3.39363E-01    3.39568E-01    3.39668E-01
    3.39962E-01    3.40667E-01    3.41218E-01    3.42357E-01    3.43022E-01
    3.43780E-01    3.44563E-01    3.44677E-01    3.45293E-01    3.45528E-01
[...]
    H56      Y     0.00002  -0.00000   0.00386   0.00391  -0.00002  -0.00003
    H56      Z    -0.00003   0.00001  -0.00307  -0.00289   0.00002   0.00002
    C57      X    -0.00000   0.00000   0.00002   0.00000   0.00000  -0.00000
    C57      Y     0.00000  -0.00000   0.00003  -0.00000   0.00000   0.00001
    C57      Z     0.00001  -0.00000   0.00010   0.00003   0.00000  -0.00001
    C58      X     0.00000  -0.00000   0.00001   0.00000  -0.00000   0.00001
    C58      Y    -0.00000   0.00001  -0.00002  -0.00002   0.00001  -0.00003
    C58      Z     0.00001  -0.00002   0.00004   0.00001  -0.00001   0.00002
    C59      X     0.00002   0.00000   0.00002   0.00002  -0.00004  -0.00000
    C59      Y     0.00002  -0.00000   0.00000   0.00001  -0.00003   0.00000
    C59      Z     0.00003  -0.00002   0.00000   0.00000   0.00002   0.00004
    H60      X    -0.00001  -0.00000  -0.00027  -0.00010  -0.00003   0.00002
    H60      Y    -0.00009   0.00008  -0.00042  -0.00004   0.00003  -0.00004
    H60      Z    -0.00023   0.00016  -0.00097  -0.00032   0.00008  -0.00009
    C61      X    -0.00000   0.00001   0.00001  -0.00001   0.00000  -0.00001
    C61      Y     0.00000   0.00000   0.00001  -0.00000   0.00000  -0.00000
    C61      Z     0.00000  -0.00001   0.00004   0.00002  -0.00000  -0.00000
    H62      X    -0.00005   0.00004  -0.00013  -0.00002   0.00001  -0.00002
    H62      Y    -0.00005   0.00005  -0.00010  -0.00001   0.00001  -0.00006
    H62      Z    -0.00011   0.00008  -0.00038  -0.00006   0.00002   0.00001
    H63      X    -0.00001   0.00004  -0.00006  -0.00011   0.00002  -0.00008
    H63      Y     0.00004  -0.00016   0.00031   0.00017  -0.00007   0.00035
    H63      Z    -0.00003   0.00013  -0.00009  -0.00005   0.00006  -0.00031
    C64      X    -0.00000   0.00000   0.00000  -0.00000  -0.00001   0.00000
    C64      Y     0.00002  -0.00000   0.00000   0.00001   0.00002  -0.00000
    C64      Z    -0.00001  -0.00001   0.00002   0.00001  -0.00002   0.00001
    H65      X    -0.00015   0.00008  -0.00008  -0.00005  -0.00005  -0.00016
    H65      Y    -0.00011   0.00004  -0.00004  -0.00004  -0.00002  -0.00013
    H65      Z    -0.00036   0.00017  -0.00024  -0.00013  -0.00013  -0.00037
    H66      X    -0.00006  -0.00006  -0.00004  -0.00006   0.00045   0.00018
    H66      Y    -0.00003  -0.00005  -0.00001  -0.00003   0.00038   0.00014
    H66      Z     0.00002  -0.00001   0.00001   0.00001   0.00001   0.00000
    C67      X    -0.00001   0.00001   0.00000  -0.00001   0.00000   0.00000
    C67      Y     0.00001  -0.00001   0.00000   0.00001  -0.00001   0.00000
    C67      Z     0.00001  -0.00001   0.00001   0.00001  -0.00001   0.00001
    H68      X     0.00003  -0.00009   0.00003   0.00025  -0.00008   0.00011
    H68      Y     0.00002  -0.00006   0.00001   0.00016  -0.00006   0.00008
    H68      Z     0.00000   0.00001  -0.00000  -0.00002   0.00001  -0.00002
    H69      X    -0.00001   0.00001  -0.00008  -0.00006   0.00001  -0.00000
    H69      Y    -0.00002   0.00002  -0.00017  -0.00011   0.00001   0.00001
    H69      Z    -0.00006   0.00005  -0.00041  -0.00024   0.00003   0.00000
    H70      X     0.00007  -0.00000   0.00001   0.00005   0.00007  -0.00005
    H70      Y    -0.00019   0.00001   0.00004  -0.00009  -0.00022   0.00014
    H70      Z     0.00014  -0.00002  -0.00006   0.00005   0.00014  -0.00008
    H71      X    -0.00000   0.00001  -0.00004  -0.00003   0.00003   0.00000
    H71      Y    -0.00004   0.00004  -0.00009  -0.00006   0.00005  -0.00005
    H71      Z    -0.00008   0.00010  -0.00019  -0.00014   0.00015  -0.00011
    H72      X     0.00010  -0.00010   0.00003   0.00017  -0.00006   0.00001
    H72      Y    -0.00007   0.00006  -0.00001  -0.00011   0.00004   0.00001
    H72      Z    -0.00005   0.00005  -0.00001  -0.00008   0.00004  -0.00002
    H73      X    -0.00002   0.00003  -0.00004  -0.00003   0.00003  -0.00003
    H73      Y    -0.00001   0.00001  -0.00003  -0.00001   0.00003  -0.00002
    H73      Z    -0.00004   0.00004  -0.00013  -0.00006   0.00008  -0.00006
    C74      X    -0.00001  -0.00000   0.00003   0.00001   0.00001  -0.00000
    C74      Y     0.00001   0.00001  -0.00001  -0.00002  -0.00003  -0.00002
    C74      Z    -0.00002  -0.00000   0.00002   0.00001   0.00003   0.00001
    C75      X    -0.00001   0.00001   0.00000   0.00000  -0.00001   0.00002
    C75      Y     0.00002   0.00004  -0.00001  -0.00001   0.00000  -0.00002
    C75      Z    -0.00002   0.00003   0.00001   0.00001  -0.00003   0.00007
    C76      X     0.00000  -0.00000  -0.00004  -0.00000   0.00001   0.00001
    C76      Y    -0.00000   0.00001  -0.00003  -0.00002   0.00000  -0.00001
    C76      Z    -0.00000  -0.00001   0.00007   0.00001  -0.00001   0.00001
    H77      X     0.00010   0.00007  -0.00018  -0.00013  -0.00010  -0.00004
    H77      Y    -0.00014  -0.00026   0.00010   0.00007   0.00018   0.00029
    H77      Z     0.00008   0.00008  -0.00016  -0.00011  -0.00006  -0.00010
    C78      X    -0.00004  -0.00008   0.00000   0.00001   0.00001   0.00000
    C78      Y     0.00012   0.00006  -0.00000  -0.00000  -0.00004  -0.00002
    C78      Z    -0.00007   0.00002   0.00001  -0.00000   0.00003   0.00001
    H79      X     0.00004   0.00016  -0.00002  -0.00000   0.00005  -0.00015
    H79      Y    -0.00030  -0.00045   0.00012   0.00008  -0.00007   0.00039
    H79      Z     0.00011   0.00034  -0.00004  -0.00003   0.00009  -0.00022
    H80      X     0.00010  -0.00030  -0.00002  -0.00002  -0.00001  -0.00011
    H80      Y     0.00004  -0.00008  -0.00003  -0.00002   0.00009  -0.00012
    H80      Z     0.00020  -0.00086  -0.00015  -0.00015   0.00031  -0.00058
    C81      X    -0.00000  -0.00000   0.00001   0.00001   0.00000   0.00000
    C81      Y     0.00002   0.00000  -0.00001   0.00000  -0.00001  -0.00001
    C81      Z    -0.00002  -0.00001   0.00003   0.00003   0.00001   0.00001
    H82      X     0.00001   0.00006  -0.00029  -0.00005   0.00000  -0.00008
    H82      Y    -0.00004  -0.00016   0.00061   0.00021  -0.00001   0.00015
    H82      Z     0.00002   0.00011  -0.00027  -0.00008  -0.00001  -0.00010
    H83      X    -0.00006   0.00003   0.00070   0.00005  -0.00010   0.00005
    H83      Y     0.00003  -0.00001  -0.00035   0.00002   0.00004  -0.00004
    H83      Z     0.00003  -0.00003  -0.00037  -0.00000   0.00006  -0.00004
    C84      X     0.00000  -0.00000   0.00000   0.00001  -0.00000   0.00000
    C84      Y     0.00002   0.00000  -0.00001  -0.00001  -0.00000  -0.00001
    C84      Z    -0.00001  -0.00001   0.00001   0.00001   0.00000   0.00001
    H85      X    -0.00001   0.00087   0.00000  -0.00011  -0.00004   0.00009
    H85      Y    -0.00000  -0.00036  -0.00002   0.00004   0.00004  -0.00004
    H85      Z    -0.00002  -0.00041  -0.00002   0.00005   0.00001  -0.00002
    H86      X     0.00040   0.00009  -0.00002  -0.00002  -0.00012  -0.00008
    H86      Y    -0.00136  -0.00040   0.00006   0.00004   0.00044   0.00033
    H86      Z     0.00069   0.00021  -0.00005  -0.00003  -0.00026  -0.00014
    H87      X    -0.00001   0.00004  -0.00011  -0.00010   0.00002  -0.00000
    H87      Y     0.00000   0.00002  -0.00010  -0.00010   0.00002  -0.00001
    H87      Z     0.00010   0.00006  -0.00033  -0.00034  -0.00000  -0.00008
    H88      X     0.00007   0.00003  -0.00004  -0.00003  -0.00005  -0.00003
    H88      Y    -0.00021  -0.00008   0.00022   0.00008   0.00014   0.00012
    H88      Z     0.00008   0.00003  -0.00010  -0.00003  -0.00006  -0.00005
    H89      X    -0.00016   0.00007   0.00004  -0.00011   0.00009   0.00003
    H89      Y    -0.00014   0.00006   0.00003  -0.00009   0.00008   0.00002
    H89      Z    -0.00003   0.00001  -0.00001  -0.00001   0.00002  -0.00001
    H90      X     0.00012   0.00004  -0.00006  -0.00006  -0.00003  -0.00006
    H90      Y    -0.00025  -0.00010   0.00011   0.00015   0.00006   0.00013
    H90      Z     0.00021   0.00007  -0.00006  -0.00008  -0.00006  -0.00010
    C93      X     0.00025   0.00030  -0.00000  -0.00000   0.00089   0.00162
    C93      Y     0.00020  -0.00030   0.00000   0.00001   0.00254  -0.00138
    C93      Z    -0.00001  -0.00018  -0.00000  -0.00001  -0.00019  -0.00051
    C94      X     0.01727   0.00017   0.00001   0.00012   0.06196  -0.00044
    C94      Y    -0.01678  -0.00063  -0.00001  -0.00009  -0.04757   0.00013
    C94      Z    -0.00448  -0.00005  -0.00000  -0.00003  -0.01531   0.00001
    C95      X    -0.00004   0.00147  -0.00001   0.00001  -0.00026   0.01338
    C95      Y     0.00136  -0.00644  -0.00000   0.00005   0.00053   0.08119
    C95      Z     0.00004  -0.00064   0.00000   0.00000   0.00002   0.00184
    C96      X     0.01142   0.00191  -0.00000  -0.00001  -0.00683  -0.00019
    C96      Y     0.07778   0.00841   0.00001  -0.00002  -0.02699  -0.00063
    C96      Z     0.00266   0.00010   0.00000   0.00000  -0.00038   0.00003
    H97      X    -0.22803  -0.00543  -0.00017  -0.00136  -0.69685   0.00679
    H97      Y     0.18437   0.00484   0.00014   0.00109   0.55125  -0.00560
    H97      Z     0.05776   0.00146   0.00004   0.00032   0.17487  -0.00230
    C98      X     0.00585  -0.06330   0.00023   0.00002  -0.00164  -0.00905
    C98      Y    -0.00546   0.05028  -0.00019  -0.00002   0.00135   0.00353
    C98      Z    -0.00162   0.01736  -0.00006  -0.00001   0.00050   0.00212
    H99      X    -0.00241   0.01083  -0.00000  -0.00008  -0.00023  -0.14227
    H99      Y    -0.01820   0.09130  -0.00005  -0.00063  -0.00377  -0.93865
    H99      Z    -0.00071   0.00280   0.00000  -0.00005  -0.00087  -0.02625
    C100     X     0.00373  -0.00140   0.00001   0.00001  -0.00187  -0.00024
    C100     Y    -0.00099  -0.00406   0.00002   0.00001   0.00106  -0.00117
    C100     Z    -0.00093   0.00003  -0.00000  -0.00000   0.00047  -0.00009
    H101     X    -0.14666  -0.01662  -0.00002   0.00003   0.05082   0.00100
    H101     Y    -0.88866  -0.09603  -0.00011   0.00019   0.28989   0.00661
    H101     Z    -0.02726  -0.00274  -0.00000   0.00000   0.00822   0.00045
    H102     X    -0.07189   0.72846  -0.00270  -0.00024   0.01835   0.07080
    H102     Y     0.05677  -0.56682   0.00210   0.00019  -0.01468  -0.05182
    H102     Z     0.01955  -0.19709   0.00073   0.00006  -0.00478  -0.01874
    F104     X    -0.00047   0.00034  -0.00000  -0.00001   0.00024   0.00003
    F104     Y    -0.00008   0.00031  -0.00000  -0.00000  -0.00001   0.00006
    F104     Z     0.00011  -0.00005  -0.00000  -0.00000  -0.00004   0.00001
  
  Number of imaginary frequencies:   1
   
  Writing vibrational animation data to ox_add_TS_L1_PL344_8.vib
  Writing IR vibrational spectrum data to ox_add_TS_L1_PL344_8_vib.spm
  rotational symmetry number:  1

  rotational temperatures (K):      0.003124      0.002695      0.002364
   
  The Quasi-Harmonic approximation will be applied to compute
  vibrational constributions to thermodynamic properties.
  Frequencies will be adjusted to a minimum value of  100.00 cm^-1.

    1 vibrational frequencies below    0.0 cm-1 not included in zero-point
  energy or thermochemical analysis.  Set freqcut to change the frequency
  cutoff value.

  vibrational temperatures:
       mode:      2        3        4        5        6        7
  temp. (K):   143.88   143.88   143.88   143.88   143.88   143.88
   
       mode:      8        9       10       11       12       13
  temp. (K):   143.88   143.88   143.88   143.88   143.88   143.88
   
       mode:     14       15       16       17       18       19
  temp. (K):   143.88   143.88   143.88   143.88   143.88   143.88
   
       mode:     20       21       22       23       24       25
  temp. (K):   143.88   144.44   153.35   158.61   162.36   192.18
   
       mode:     26       27       28       29       30       31
  temp. (K):   198.50   207.25   216.96   224.56   234.94   237.03
   
       mode:     32       33       34       35       36       37
  temp. (K):   247.38   250.27   270.39   277.00   284.03   296.45
   
       mode:     38       39       40       41       42       43
  temp. (K):   321.07   328.38   332.92   353.08   355.78   380.71
   
       mode:     44       45       46       47       48       49
  temp. (K):   381.72   382.20   383.92   384.82   394.82   421.14
   
       mode:     50       51       52       53       54       55
  temp. (K):   430.57   438.69   445.44   452.63   460.54   467.37
   
       mode:     56       57       58       59       60       61
  temp. (K):   484.24   487.60   489.86   502.82   511.30   546.31
   
       mode:     62       63       64       65       66       67
  temp. (K):   552.65   553.68   583.35   586.21   590.23   600.73
   
       mode:     68       69       70       71       72       73
  temp. (K):   622.24   625.43   648.47   653.31   655.13   659.51
   
       mode:     74       75       76       77       78       79
  temp. (K):   679.74   694.63   708.83   718.59   737.86   754.89
   
       mode:     80       81       82       83       84       85
  temp. (K):   762.96   805.90   812.34   818.95   855.62   895.17
   
       mode:     86       87       88       89       90       91
  temp. (K):   896.79   907.28   913.86   933.82   967.11   969.92
   
       mode:     92       93       94       95       96       97
  temp. (K):  1002.71  1043.23  1055.50  1093.66  1134.70  1140.08
   
       mode:     98       99      100      101      102      103
  temp. (K):  1155.60  1164.34  1168.68  1175.51  1176.13  1185.92
   
       mode:    104      105      106      107      108      109
  temp. (K):  1198.01  1206.79  1210.55  1218.03  1246.48  1261.27
   
       mode:    110      111      112      113      114      115
  temp. (K):  1262.62  1306.03  1312.26  1315.40  1317.23  1320.57
   
       mode:    116      117      118      119      120      121
  temp. (K):  1321.87  1323.33  1324.74  1342.70  1343.85  1360.68
   
       mode:    122      123      124      125      126      127
  temp. (K):  1364.98  1367.81  1370.14  1371.51  1374.58  1394.61
   
       mode:    128      129      130      131      132      133
  temp. (K):  1405.90  1412.74  1413.75  1419.08  1431.69  1477.46
   
       mode:    134      135      136      137      138      139
  temp. (K):  1478.99  1479.83  1519.54  1524.79  1528.01  1549.93
   
       mode:    140      141      142      143      144      145
  temp. (K):  1557.49  1572.91  1576.06  1590.59  1598.28  1600.76
   
       mode:    146      147      148      149      150      151
  temp. (K):  1606.80  1611.73  1615.40  1631.66  1639.58  1643.62
   
       mode:    152      153      154      155      156      157
  temp. (K):  1645.12  1649.20  1652.16  1659.02  1680.71  1701.93
   
       mode:    158      159      160      161      162      163
  temp. (K):  1703.68  1705.01  1720.64  1723.39  1743.52  1745.62
   
       mode:    164      165      166      167      168      169
  temp. (K):  1747.62  1755.21  1758.10  1769.48  1773.44  1792.76
   
       mode:    170      171      172      173      174      175
  temp. (K):  1812.83  1848.72  1860.38  1870.58  1873.87  1876.56
   
       mode:    176      177      178      179      180      181
  temp. (K):  1879.55  1881.61  1885.10  1889.93  1891.81  1895.98
   
       mode:    182      183      184      185      186      187
  temp. (K):  1900.61  1904.60  1921.44  1934.70  1948.32  1952.24
   
       mode:    188      189      190      191      192      193
  temp. (K):  1955.17  1965.14  1965.33  1969.01  1973.83  1976.28
   
       mode:    194      195      196      197      198      199
  temp. (K):  1992.61  1993.51  1995.53  2006.19  2008.87  2012.98
   
       mode:    200      201      202      203      204      205
  temp. (K):  2016.65  2018.49  2020.70  2028.19  2045.87  2047.04
   
       mode:    206      207      208      209      210      211
  temp. (K):  2049.54  2050.51  2074.77  2076.23  2078.41  2083.39
   
       mode:    212      213      214      215      216      217
  temp. (K):  2122.01  2136.19  2154.06  2158.57  2162.11  2164.72
   
       mode:    218      219      220      221      222      223
  temp. (K):  2165.38  2171.34  2173.44  2174.99  2176.63  2177.17
   
       mode:    224      225      226      227      228      229
  temp. (K):  2179.10  2181.16  2182.81  2183.11  2184.09  2187.13
   
       mode:    230      231      232      233      234      235
  temp. (K):  2189.35  2189.75  2191.70  2192.50  2199.48  2202.35
   
       mode:    236      237      238      239      240      241
  temp. (K):  2203.35  2204.11  2204.94  2205.61  2207.00  2215.62
   
       mode:    242      243      244      245      246      247
  temp. (K):  2220.06  2222.12  2329.80  2341.61  2361.28  2362.86
   
       mode:    248      249      250      251      252      253
  temp. (K):  2374.25  2408.09  4340.54  4342.72  4349.11  4353.92
   
       mode:    254      255      256      257      258      259
  temp. (K):  4354.25  4356.15  4356.16  4359.31  4361.09  4363.64
   
       mode:    260      261      262      263      264      265
  temp. (K):  4372.39  4373.22  4374.69  4378.72  4380.22  4381.91
   
       mode:    266      267      268      269      270      271
  temp. (K):  4382.49  4387.09  4403.73  4408.43  4424.64  4430.47
   
       mode:    272      273      274      275      276      277
  temp. (K):  4432.56  4432.89  4435.00  4436.28  4438.68  4440.32
   
       mode:    278      279      280      281      282      283
  temp. (K):  4444.48  4449.65  4451.75  4456.63  4462.16  4473.80
   
       mode:    284      285      286      287      288      289
  temp. (K):  4476.04  4476.04  4485.32  4486.40  4486.67  4489.32
   
       mode:    290      291      292      293      294      295
  temp. (K):  4494.75  4500.85  4507.25  4519.57  4524.46  4544.63
   
       mode:    296      297      298      299      300      301
  temp. (K):  4550.75  4557.10  4560.82  4573.40  4588.30  4621.62
   
       mode:    302      303      304      305      306
  temp. (K):  4630.15  4631.66  4653.32  4656.64  4711.08
   
   
  Thermodynamic properties calculated assuming an ideal gas

  In the table below, the units for temperature
  are kelvins, the units for U, H, and G are
  kcal/mol and the units for Cv and S are cal/(mol K)

  The zero point energy (ZPE):    568.685 kcal/mol
  is not included in U, H, or G in the table below
  
 
  =============================================================================
  Thermodynamic properties for P = 1.00E+00 atm, calculated at   1 temperatures


  T =   298.15 K, P = 1.00E+00 atm
   
                  U         Cv          S          H          G        ln(Q)
              =========  =========  =========  =========  =========  =========
  trans.          0.889      2.981     45.976      1.481    -12.227   20.63617
  rot.            0.889      2.981     38.721      0.889    -10.656   17.98493
  vib.           28.646    185.087    176.174     28.646    -23.880   40.30448
  elec.           0.000      0.000      0.000      0.000      0.000    0.00000
  ----------------------------------------------------------------------------
  total          30.424    191.049    260.871     31.016    -46.762   78.92558
   
   Total internal energy, Utot(SCFE + ZPE + U):   -2326.857276 hartrees
   Total enthalpy, Htot (Utot + nRT), with n=1:   -2326.856332 hartrees
    Total Gibbs free energy, Gtot (Htot - T*S):   -2326.980280 hartrees
   
  end of program freq
   
 Time(freq)  user:       1.135  user+sys:       1.135  wallclock:       0.905
  
  start of program post
  
  Writing input files for PBF
  end of program post
   
 Time(post)  user:       0.262  user+sys:       0.262  wallclock:       0.086

 Total cpu seconds     user:  178305.365   user+sys:  178305.365
  
 Total elapsed time:    22545 seconds

Job ox_add_TS_L1_PL344_8 completed on bp1-compute086 at Wed Dec 10 21:24:39 2025
