Job PL344 started on bp1-compute084.data.bp.acrc.priv at Thu Mar 27 10:36:31 2025
jobid: bp1-compute084-0-67e52a2a

  +--------------------------------------------------------------------+
  |  Jaguar version 12.5, release 138                                  |
  |                                                                    |
  |  Copyright Schrodinger, Inc.                                       |
  |  All Rights Reserved.                                              |
  |                                                                    |
  |  The following have contributed to Jaguar (listed alphabetically): |
  |  Ty Balduf, Mike Beachy, Chandler Bennett, Art Bochevarov,         |
  |  Dale Braden, Yixiang Cao, Alan Chien, Chris Cortis,               |
  |  Rich Friesner, Jim Furness, Bill Goddard, Hod Greeley,            |
  |  Tom Hughes, Leif Jacobson, Jean-Marc Langlois, Daniel Levine,     |
  |  Rob Murphy, Dean Philipp, Tom Pollard, Murco Ringnalda,           |
  |  Daniel Mainz, Pablo Videla, Mark Watson, Haoyu Yu.                |
  |                                                                    |
  |  Use of this program should be acknowledged in publications as:    |
  |                                                                    |
  |  Jaguar, version 12.5, Schrodinger, Inc., New York, NY, 2024.      |
  |                                                                    |
  |  A. D. Bochevarov, E. Harder, T. F. Hughes, J. R. Greenwood,       |
  |  D. A. Braden, D. M. Philipp, D. Rinaldo, M. D. Halls,             |
  |  J. Zhang, R. A. Friesner, "Jaguar: A High-Performance Quantum     |
  |  Chemistry Software Program with Strengths in Life and Materials   |
  |  Sciences", Int. J. Quantum Chem., 2013, 113(18), 2110-2142.       |
  +--------------------------------------------------------------------+
  
  start of program pre
  
  Job name: PL344
  Executables used: /software/local/apps/schrodinger2024-3/jaguar-v12.5/bin/Linux-x86_64
  Temporary files : /tmp/ar21627/PL344#bp1-compute084-0-67e52a2a
  Basis file : using default basis file from /software/local/apps/schrodinger2024-3
  Maestro file (input):  PL344.mae
  Maestro file (output): PL344.01.mae
  
 Contents of input file: &gen and (if present) &atomic sections only
 ----------------Contents start----------------
&gen
dftname=b3pw91-d3
basis=6-31G*
numd=5
ip11=2
iaccg=3
isolv=2
igeopt=1
solvent=benzene
ifreq=1
&
 -----------------Contents end-----------------
 
  PS calculation requested. Using PS version of 6-31g*
  basis set:               6-31g*                          
  net molecular charge:    0
  multiplicity:            1
  
  Using up to   4 threads per process
  
  number of basis functions....          642
  
 Input geometry:
                                   angstroms
  atom               x                 y                 z
  P1            0.0000000000      0.0000000000      0.0000000000 
  C3            1.7300610000      0.0000000000     -0.6757070000 
  C4            2.3683310000     -1.3786470000     -0.9527850000 
  C5            3.6839660000     -1.2353690000     -1.7327820000 
  C6            4.6878420000     -0.3819010000     -0.9461730000 
  C7            4.0786400000      0.9798580000     -0.5868500000 
  C8            2.7482580000      0.8044910000      0.1612460000 
  C9           -0.8180240000      1.4096690000     -0.6917300000 
  C10          -2.2927740000      1.4539250000     -0.2588000000 
  C11          -3.0649390000      2.6131910000     -0.9019730000 
  C12          -2.3959200000      3.9537300000     -0.5771470000 
  C13          -0.9361930000      3.9384250000     -1.0456500000 
  C14          -0.1619940000      2.7737060000     -0.4106920000 
  C15          -0.9407660000     -1.3859480000     -0.6815250000 
  C16          -1.6738125872     -2.3161384009      0.1141116587 
  C17          -2.5134174674     -3.2605751516     -0.5240955105 
  C18          -2.6173510128     -3.2340257141     -1.9234076241 
  C19          -1.9183950075     -2.3015299328     -2.6901990567 
  C20          -1.0735400134     -1.3571029430     -2.0903289547 
  C21          -1.6173562052     -2.3803924065      1.5383804198 
  C22          -2.7097877312     -1.9094792274      2.3328230168 
  C23          -2.6332593259     -1.9776224076      3.7367162723 
  C24          -1.5323793991     -2.4998835426      4.4215486242 
  C25          -0.4834933927     -2.9751426397      3.6298823587 
  C26          -0.4959410722     -2.9302975633      2.2233286354 
  C27           0.6597165394     -3.6503670691      1.5432455634 
  C28           0.4111849899     -5.1687471161      1.6369697773 
  C29           2.0520753415     -3.3232316462      2.1205782138 
  C30          -5.2764701539     -1.8544202661      2.2728574508 
  C31          -3.9580805555     -1.2021048488      1.8051498680 
  C32          -3.9793205492      0.2780220728      2.2452926512 
  C33          -1.4362255010     -4.0146042161      6.4272592594 
  C34          -1.4885595395     -2.5593439017      5.9346712514 
  C35          -0.3107842456     -1.7396633680      6.4865529699 
  O36          -0.4225270217     -0.4247376911     -2.8440797967 
  C37          -0.3948513675     -0.3896798114     -4.2552232135 
  O38          -3.1425212944     -4.2311405531      0.2038031613 
  C39          -3.8201344277     -5.3387864864     -0.3554691446 
  H40           1.6344330000      0.5420470000     -1.6433500000 
  H41           1.6814530000     -2.0423920000     -1.5239010000 
  H42           2.5802080000     -1.9043560000      0.0047220000 
  H43           4.1212220000     -2.2431430000     -1.9335920000 
  H44           3.4816040000     -0.7640100000     -2.7240900000 
  H45           5.6210130000     -0.2397150000     -1.5425970000 
  H46           4.9748910000     -0.9171950000     -0.0096740000 
  H47           4.7964410000      1.5609340000      0.0409890000 
  H48           3.9073530000      1.5709840000     -1.5179420000 
  H49           2.3481220000      1.8072140000      0.4333270000 
  H50           2.9401670000      0.2834650000      1.1268150000 
  H51          -0.7997930000      1.2640200000     -1.7961970000 
  H52          -2.3371980000      1.5493870000      0.8518520000 
  H53          -2.7961720000      0.4982840000     -0.5365800000 
  H54          -3.1011620000      2.4693480000     -2.0082010000 
  H55          -4.1204230000      2.6175750000     -0.5372480000 
  H56          -2.4356110000      4.1371990000      0.5230460000 
  H57          -2.9491600000      4.7878510000     -1.0721710000 
  H58          -0.9047120000      3.8440790000     -2.1575050000 
  H59          -0.4455580000      4.9074950000     -0.7861250000 
  H60          -0.0908130000      2.9280340000      0.6918250000 
  H61           0.8719580000      2.7918690000     -0.8252090000 
  H62          -3.2516120760     -3.9563310413     -2.4611165482 
  H63          -2.0569832094     -2.3305787981     -3.7826179339 
  H64          -3.4628719227     -1.5951733762      4.3492819409 
  H65           0.3683605404     -3.4233840986      4.1587189205 
  H66           0.6619608496     -3.4545333448      0.4518470850 
  H67           0.3973772249     -5.5217594052      2.6934197610 
  H68          -0.5673128590     -5.4437891920      1.1783759355 
  H69           1.2040407121     -5.7424013396      1.1030713023 
  H70           2.2199262441     -3.7634442479      3.1283586141 
  H71           2.8607204490     -3.7399521189      1.4784284700 
  H72           2.2093754295     -2.2252668878      2.2097788247 
  H73          -5.4892537843     -1.6636343975      3.3485871750 
  H74          -6.1439797118     -1.4553315805      1.6981876388 
  H75          -5.2674518551     -2.9584909057      2.1496987963 
  H76          -3.9553691014     -1.1528827153      0.6935616443 
  H77          -4.0937450956      0.3976544812      3.3461014525 
  H78          -4.8233131173      0.8289149816      1.7689715750 
  H79          -3.0408642423      0.8011361576      1.9625162942 
  H80          -0.5027672483     -4.5291777710      6.1048656300 
  H81          -2.3002706521     -4.5981600894      6.0333885180 
  H82          -1.4756133278     -4.0629952412      7.5399413553 
  H83          -2.4246072888     -2.1058752121      6.3427813636 
  H84           0.6717601767     -2.1578518002      6.1707272456 
  H85          -0.3616079404     -0.6840915135      6.1323374882 
  H86          -0.3216982015     -1.7224125530      7.6008021411 
  H87           0.2662325470      0.4570177668     -4.5473824852 
  H88          -1.4248372171     -0.2050876112     -4.6362133438 
  H89           0.0354341860     -1.3447297159     -4.6338480700 
  H90          -4.1280411365     -6.0032803575      0.4824275867 
  H91          -4.7246548741     -4.9759584177     -0.8946163398 
  H92          -3.1227742304     -5.8966496108     -1.0211133810 
   
  principal moments of inertia:
        amu*angstrom^2:              4580.34242              6546.26305              7168.94536
                g*cm^2:          7.60583658E-37          1.08703242E-36          1.19043123E-36
   
  rotational constants:
               cm^(-1):      0.00368043      0.00257515      0.00235148
                   GHz:      0.11033651      0.07720115      0.07049559
   
  Molecular weight:     536.38 amu
   
  Stoichiometry: C35PH53O2
  Molecular Point Group: C1      
  Point Group used: C1
  
 
Number of optimization coordinates:   299
Number of independent coordinates:    299
Number of non-redundant coordinates:  267
Number of frozen coordinates:           0
Number of harmonic constraints:         0
 
Number of geometric degrees of freedom:   267
Maximum geometric degrees of freedom:     267
 " " " " " excluding dummy atoms:         267
 
 
  bond lengths (angstroms):
 
 P1      -C3      :   1.857334      P1      -C9      :   1.770542
 P1      -C15     :   1.808416      C3      -C4      :   1.544289
 C3      -C8      :   1.544157      C3      -H40     :   1.113235
 C4      -C5      :   1.536170      C4      -H41     :   1.112894
 C4      -H42     :   1.112691      C5      -C6      :   1.534578
 C5      -H43     :   1.116748      C5      -H44     :   1.116164
 C6      -C7      :   1.534480      C6      -H45     :   1.116578
 C6      -H46     :   1.116229      C7      -C8      :   1.536332
 C7      -H47     :   1.116723      C7      -H48     :   1.116110
 C8      -H49     :   1.113369      C8      -H50     :   1.113832
 C9      -C10     :   1.537620      C9      -C14     :   1.539466
 C9      -H51     :   1.114178      C10     -C11     :   1.534212
 C10     -H52     :   1.115632      C10     -H53     :   1.115267
 C11     -C12     :   1.533018      C11     -H54     :   1.116129
 C11     -H55     :   1.116732      C12     -C13     :   1.533145
 C12     -H56     :   1.116092      C12     -H57     :   1.116638
 C13     -C14     :   1.535945      C13     -H58     :   1.116295
 C13     -H59     :   1.116769      C14     -H60     :   1.115539
 C14     -H61     :   1.114096      C15     -C16     :   1.426762
 C15     -C20     :   1.415341      C16     -C17     :   1.415700
 C16     -C21     :   1.426835      C17     -C18     :   1.403418
 C17     -O38     :   1.366604      C18     -C19     :   1.395011
 C18     -H62     :   1.101428      C19     -C20     :   1.401987
 C19     -H63     :   1.101558      C20     -O36     :   1.364281
 C21     -C22     :   1.430491      C21     -C26     :   1.424472
 C22     -C23     :   1.407628      C22     -C31     :   1.528742
 C23     -C24     :   1.397744      C23     -H64     :   1.099891
 C24     -C25     :   1.397415      C24     -C34     :   1.514924
 C25     -C26     :   1.407323      C25     -H65     :   1.098291
 C26     -C27     :   1.522024      C27     -C28     :   1.541438
 C27     -C29     :   1.542399      C27     -H66     :   1.108831
 C28     -H67     :   1.113955      C28     -H68     :   1.115085
 C28     -H69     :   1.114786      C29     -H70     :   1.112467
 C29     -H71     :   1.113517      C29     -H72     :   1.112756
 C30     -C31     :   1.543508      C30     -H73     :   1.113046
 C30     -H74     :   1.114491      C30     -H75     :   1.110955
 C31     -C32     :   1.544329      C31     -H76     :   1.112681
 C32     -H77     :   1.113187      C32     -H78     :   1.114759
 C32     -H79     :   1.110996      C33     -C34     :   1.537259
 C33     -H80     :   1.113583      C33     -H81     :   1.114561
 C33     -H82     :   1.114430      C34     -C35     :   1.537402
 C34     -H83     :   1.117306      C35     -H84     :   1.113562
 C35     -H85     :   1.114578      C35     -H86     :   1.114436
 O36     -C37     :   1.411850      C37     -H87     :   1.113232
 C37     -H88     :   1.113597      C37     -H89     :   1.113832
 O38     -C39     :   1.413798      C39     -H90     :   1.112848
 C39     -H91     :   1.113769      C39     -H92     :   1.113824
 
  bond angles:
 
 C9      -P1      -C3      : 106.751716  C15     -P1      -C3      : 110.332238
 C15     -P1      -C9      : 102.861598  C4      -C3      -P1      : 116.760510
 C8      -C3      -P1      : 114.646323  C8      -C3      -C4      : 106.847527
 H40     -C3      -P1      : 103.662995  H40     -C3      -C4      : 108.314501
 H40     -C3      -C8      : 105.907946  C5      -C4      -C3      : 111.211448
 H41     -C4      -C3      : 111.679997  H41     -C4      -C5      : 108.883871
 H42     -C4      -C3      : 110.248545  H42     -C4      -C5      : 108.537431
 H42     -C4      -H41     : 106.102112  C6      -C5      -C4      : 110.601118
 H43     -C5      -C4      : 110.027297  H43     -C5      -C6      : 109.750386
 H44     -C5      -C4      : 109.576838  H44     -C5      -C6      : 109.815095
 H44     -C5      -H43     : 107.000444  C7      -C6      -C5      : 110.724618
 H45     -C6      -C5      : 110.104777  H45     -C6      -C7      : 110.112838
 H46     -C6      -C5      : 109.364249  H46     -C6      -C7      : 109.342233
 H46     -C6      -H45     : 107.115239  C8      -C7      -C6      : 110.886276
 H47     -C7      -C6      : 109.769420  H47     -C7      -C8      : 110.013431
 H48     -C7      -C6      : 109.608747  H48     -C7      -C8      : 109.498195
 H48     -C7      -H47     : 106.982164  C7      -C8      -C3      : 111.502229
 H49     -C8      -C3      : 111.388588  H49     -C8      -C7      : 109.111490
 H50     -C8      -C3      : 109.862699  H50     -C8      -C7      : 109.045316
 H50     -C8      -H49     : 105.745522  C10     -C9      -P1      : 110.857327
 C14     -C9      -P1      : 115.928139  C14     -C9      -C10     : 109.378978
 H51     -C9      -P1      : 106.000389  H51     -C9      -C10     : 107.371173
 H51     -C9      -C14     : 106.847078  C11     -C10     -C9      : 112.732647
 H52     -C10     -C9      : 108.720752  H52     -C10     -C11     : 109.429831
 H53     -C10     -C9      : 109.762611  H53     -C10     -C11     : 108.413472
 H53     -C10     -H52     : 107.656261  C12     -C11     -C10     : 110.626189
 H54     -C11     -C10     : 109.539408  H54     -C11     -C12     : 109.686039
 H55     -C11     -C10     : 109.983071  H55     -C11     -C12     : 109.866913
 H55     -C11     -H54     : 107.069708  C13     -C12     -C11     : 110.000606
 H56     -C12     -C11     : 109.699947  H56     -C12     -C13     : 109.677805
 H57     -C12     -C11     : 110.062984  H57     -C12     -C13     : 110.103242
 H57     -C12     -H56     : 107.252736  C14     -C13     -C12     : 111.171369
 H58     -C13     -C12     : 109.393996  H58     -C13     -C14     : 109.478303
 H59     -C13     -C12     : 109.792782  H59     -C13     -C14     : 109.907327
 H59     -C13     -H58     : 107.002557  C13     -C14     -C9      : 112.434621
 H60     -C14     -C9      : 109.280610  H60     -C14     -C13     : 109.622954
 H61     -C14     -C9      : 109.999296  H61     -C14     -C13     : 107.554917
 H61     -C14     -H60     : 107.833293  C16     -C15     -P1      : 123.832937
 C20     -C15     -P1      : 114.098396  C20     -C15     -C16     : 121.343339
 C17     -C16     -C15     : 119.225455  C21     -C16     -C15     : 124.449485
 C21     -C16     -C17     : 116.322323  C18     -C17     -C16     : 118.736932
 O38     -C17     -C16     : 120.443358  O38     -C17     -C18     : 120.691735
 C19     -C18     -C17     : 121.573946  H62     -C18     -C17     : 121.131545
 H62     -C18     -C19     : 117.293272  C20     -C19     -C18     : 121.133741
 H63     -C19     -C18     : 117.674159  H63     -C19     -C20     : 121.191582
 C19     -C20     -C15     : 117.949811  O36     -C20     -C15     : 121.271958
 O36     -C20     -C19     : 120.765950  C22     -C21     -C16     : 120.618772
 C26     -C21     -C16     : 121.905017  C26     -C21     -C22     : 117.467414
 C23     -C22     -C21     : 119.764417  C31     -C22     -C21     : 125.747183
 C31     -C22     -C23     : 114.270544  C24     -C23     -C22     : 123.337088
 H64     -C23     -C22     : 119.842345  H64     -C23     -C24     : 116.815584
 C25     -C24     -C23     : 116.147259  C34     -C24     -C23     : 121.790863
 C34     -C24     -C25     : 122.058730  C26     -C25     -C24     : 123.280324
 H65     -C25     -C24     : 116.627553  H65     -C25     -C26     : 120.073501
 C25     -C26     -C21     : 119.989746  C27     -C26     -C21     : 124.439266
 C27     -C26     -C25     : 115.137511  C28     -C27     -C26     : 108.447251
 C29     -C27     -C26     : 114.697965  C29     -C27     -C28     : 109.372768
 H66     -C27     -C26     : 110.964197  H66     -C27     -C28     : 103.541195
 H66     -C27     -C29     : 109.216446  H67     -C28     -C27     : 111.828064
 H68     -C28     -C27     : 111.066057  H68     -C28     -H67     : 107.517143
 H69     -C28     -C27     : 111.290528  H69     -C28     -H67     : 107.454287
 H69     -C28     -H68     : 107.470254  H70     -C29     -C27     : 113.039231
 H71     -C29     -C27     : 111.120614  H71     -C29     -H70     : 105.352549
 H72     -C29     -C27     : 111.523991  H72     -C29     -H70     : 107.247586
 H72     -C29     -H71     : 108.230131  H73     -C30     -C31     : 112.563474
 H74     -C30     -C31     : 110.933396  H74     -C30     -H73     : 106.747858
 H75     -C30     -C31     : 112.301123  H75     -C30     -H73     : 106.202930
 H75     -C30     -H74     : 107.759837  C30     -C31     -C22     : 113.410265
 C32     -C31     -C22     : 110.875326  C32     -C31     -C30     : 107.874938
 H76     -C31     -C22     : 111.303542  H76     -C31     -C30     : 108.874448
 H76     -C31     -C32     : 104.025938  H77     -C32     -C31     : 112.721430
 H78     -C32     -C31     : 111.239696  H78     -C32     -H77     : 106.953943
 H79     -C32     -C31     : 111.538001  H79     -C32     -H77     : 106.733468
 H79     -C32     -H78     : 107.342713  H80     -C33     -C34     : 111.913632
 H81     -C33     -C34     : 110.855877  H81     -C33     -H80     : 107.793726
 H82     -C33     -C34     : 111.089936  H82     -C33     -H80     : 107.374596
 H82     -C33     -H81     : 107.619723  C33     -C34     -C24     : 110.989231
 C35     -C34     -C24     : 111.086461  C35     -C34     -C33     : 111.322334
 H83     -C34     -C24     : 108.945303  H83     -C34     -C33     : 107.198855
 H83     -C34     -C35     : 107.115307  H84     -C35     -C34     : 111.957177
 H85     -C35     -C34     : 110.849828  H85     -C35     -H84     : 107.803871
 H86     -C35     -C34     : 111.079362  H86     -C35     -H84     : 107.338962
 H86     -C35     -H85     : 107.616392  C37     -O36     -C20     : 125.347685
 H87     -C37     -O36     : 107.027922  H88     -C37     -O36     : 109.143780
 H88     -C37     -H87     : 109.474790  H89     -C37     -O36     : 109.028651
 H89     -C37     -H87     : 109.483317  H89     -C37     -H88     : 112.528252
 C39     -O38     -C17     : 124.495828  H90     -C39     -O38     : 107.612303
 H91     -C39     -O38     : 108.996383  H91     -C39     -H90     : 109.529437
 H92     -C39     -O38     : 109.191410  H92     -C39     -H90     : 108.912965
 H92     -C39     -H91     : 112.478480
 
  torsional angles:
 
 P1      -C3      -C4      -C5      : 169.923669
 P1      -C3      -C4      -H41     :  48.060819
 P1      -C3      -C4      -H42     : -69.634716
 P1      -C3      -C8      -C7      :-169.287675
 P1      -C3      -C8      -H49     : -47.131717
 P1      -C3      -C8      -H50     :  69.699520
 P1      -C9      -C10     -C11     :-176.567334
 P1      -C9      -C10     -H52     :  61.912220
 P1      -C9      -C10     -H53     : -55.607106
 P1      -C9      -C14     -C13     :-179.962271
 P1      -C9      -C14     -H60     : -58.000942
 P1      -C9      -C14     -H61     :  60.201212
 P1      -C15     -C16     -C17     : 171.983891
 P1      -C15     -C16     -C21     :  -8.641080
 P1      -C15     -C20     -C19     :-172.587532
 P1      -C15     -C20     -O36     :   6.146929
 C3      -P1      -C9      -C10     : 176.560205
 C3      -P1      -C9      -C14     : -57.984661
 C3      -P1      -C9      -H51     :  60.352333
 C3      -P1      -C15     -C16     : 128.793160
 C3      -P1      -C15     -C20     : -60.875107
 C3      -C4      -C5      -C6      :  59.308658
 C3      -C4      -C5      -H43     :-179.274375
 C3      -C4      -C5      -H44     : -61.892393
 C3      -C8      -C7      -C6      : -58.192460
 C3      -C8      -C7      -H47     :-179.812198
 C3      -C8      -C7      -H48     :  62.882889
 C4      -C3      -P1      -C9      :-145.173781
 C4      -C3      -P1      -C15     : -34.107767
 C4      -C3      -C8      -C7      :  59.675156
 C4      -C3      -C8      -H49     :-178.168885
 C4      -C3      -C8      -H50     : -61.337649
 C4      -C5      -C6      -C7      : -55.119754
 C4      -C5      -C6      -H45     :-177.126106
 C4      -C5      -C6      -H46     :  65.433232
 C5      -C4      -C3      -C8      : -60.233288
 C5      -C4      -C3      -H40     :  53.463667
 C5      -C6      -C7      -C8      :  54.573566
 C5      -C6      -C7      -H47     : 176.336307
 C5      -C6      -C7      -H48     : -66.436546
 C6      -C5      -C4      -H41     :-177.216787
 C6      -C5      -C4      -H42     : -62.137696
 C6      -C7      -C8      -H49     : 178.348316
 C6      -C7      -C8      -H50     :  63.296121
 C7      -C6      -C5      -H43     :-176.700207
 C7      -C6      -C5      -H44     :  65.940081
 C7      -C8      -C3      -H40     : -55.646904
 C8      -C3      -P1      -C9      :  88.776161
 C8      -C3      -P1      -C15     :-160.157826
 C8      -C3      -C4      -H41     : 177.903862
 C8      -C3      -C4      -H42     :  60.208326
 C8      -C7      -C6      -H45     : 176.575196
 C8      -C7      -C6      -H46     : -65.992517
 C9      -P1      -C3      -H40     : -26.177214
 C9      -P1      -C15     -C16     :-117.635352
 C9      -P1      -C15     -C20     :  52.696382
 C9      -C10     -C11     -C12     : -57.021071
 C9      -C10     -C11     -H54     :  64.010740
 C9      -C10     -C11     -H55     :-178.571318
 C9      -C14     -C13     -C12     :  56.244359
 C9      -C14     -C13     -H58     : -64.733025
 C9      -C14     -C13     -H59     : 178.011177
 C10     -C9      -P1      -C15     :  60.397225
 C10     -C9      -C14     -C13     : -53.757089
 C10     -C9      -C14     -H60     :  68.204241
 C10     -C9      -C14     -H61     :-173.593606
 C10     -C11     -C12     -C13     :  56.989562
 C10     -C11     -C12     -H56     : -63.737169
 C10     -C11     -C12     -H57     : 178.478605
 C11     -C10     -C9      -C14     :  54.380734
 C11     -C10     -C9      -H51     : -61.210102
 C11     -C12     -C13     -C14     : -56.858653
 C11     -C12     -C13     -H58     :  64.168238
 C11     -C12     -C13     -H59     :-178.692164
 C12     -C11     -C10     -H52     :  64.096393
 C12     -C11     -C10     -H53     :-178.747869
 C12     -C13     -C14     -H60     : -65.522455
 C12     -C13     -C14     -H61     : 177.489555
 C13     -C12     -C11     -H54     : -63.955251
 C13     -C12     -C11     -H55     : 178.608293
 C13     -C14     -C9      -H51     :  62.168088
 C14     -C9      -P1      -C15     :-174.147642
 C14     -C9      -C10     -H52     : -67.139713
 C14     -C9      -C10     -H53     : 175.340961
 C14     -C13     -C12     -H56     :  63.881404
 C14     -C13     -C12     -H57     :-178.323655
 C15     -P1      -C3      -H40     :  84.888800
 C15     -P1      -C9      -H51     : -55.810647
 C15     -C16     -C17     -C18     :  -1.211674
 C15     -C16     -C17     -O38     : 174.704477
 C15     -C16     -C21     -C22     : 106.312724
 C15     -C16     -C21     -C26     : -74.793750
 C15     -C20     -C19     -C18     :   0.582654
 C15     -C20     -C19     -H63     :-179.685155
 C15     -C20     -O36     -C37     : 173.920676
 C16     -C15     -C20     -C19     :  -1.988453
 C16     -C15     -C20     -O36     : 176.746008
 C16     -C17     -C18     -C19     :  -0.160242
 C16     -C17     -C18     -H62     : 179.424135
 C16     -C17     -O38     -C39     :-169.338857
 C16     -C21     -C22     -C23     :-179.803181
 C16     -C21     -C22     -C31     :  -5.486577
 C16     -C21     -C26     -C25     :-179.918040
 C16     -C21     -C26     -C27     :  -7.851630
 C17     -C16     -C15     -C20     :   2.324640
 C17     -C16     -C21     -C22     : -74.295785
 C17     -C16     -C21     -C26     : 104.597740
 C17     -C18     -C19     -C20     :   0.485811
 C17     -C18     -C19     -H63     :-179.255501
 C17     -O38     -C39     -H90     : 173.917434
 C17     -O38     -C39     -H91     : -67.382869
 C17     -O38     -C39     -H92     :  55.845501
 C18     -C17     -C16     -C21     : 179.363309
 C18     -C17     -O38     -C39     :   6.496845
 C18     -C19     -C20     -O36     :-178.158510
 C19     -C18     -C17     -O38     :-176.065905
 C19     -C20     -O36     -C37     :  -7.380356
 C20     -C15     -C16     -C21     :-178.300331
 C20     -C19     -C18     -H62     :-179.113854
 C20     -O36     -C37     -H87     :-176.871282
 C20     -O36     -C37     -H88     :  64.743069
 C20     -O36     -C37     -H89     : -58.537095
 C21     -C16     -C17     -O38     :  -4.720540
 C21     -C22     -C23     -C24     :  -0.533899
 C21     -C22     -C23     -H64     : 178.627488
 C21     -C22     -C31     -C30     : 127.107180
 C21     -C22     -C31     -C32     :-111.353379
 C21     -C22     -C31     -H76     :   3.932119
 C21     -C26     -C25     -C24     :  -0.025920
 C21     -C26     -C25     -H65     : 178.350264
 C21     -C26     -C27     -C28     : -97.611058
 C21     -C26     -C27     -C29     : 139.820877
 C21     -C26     -C27     -H66     :  15.476161
 C22     -C21     -C26     -C25     :  -0.991216
 C22     -C21     -C26     -C27     : 171.075193
 C22     -C23     -C24     -C25     :  -0.479812
 C22     -C23     -C24     -C34     :-179.846713
 C22     -C31     -C30     -H73     :  72.797348
 C22     -C31     -C30     -H74     :-167.661808
 C22     -C31     -C30     -H75     : -47.005828
 C22     -C31     -C32     -H77     : -66.380744
 C22     -C31     -C32     -H78     : 173.491349
 C22     -C31     -C32     -H79     :  53.675279
 C23     -C22     -C21     -C26     :   1.255466
 C23     -C22     -C31     -C30     : -58.303934
 C23     -C22     -C31     -C32     :  63.235507
 C23     -C22     -C31     -H76     : 178.521005
 C23     -C24     -C25     -C26     :   0.764190
 C23     -C24     -C25     -H65     :-177.663878
 C23     -C24     -C34     -C33     : 116.075623
 C23     -C24     -C34     -C35     :-119.498530
 C23     -C24     -C34     -H83     :  -1.733846
 C24     -C23     -C22     -C31     :-175.475746
 C24     -C25     -C26     -C27     :-172.802318
 C24     -C34     -C33     -H80     :  63.944766
 C24     -C34     -C33     -H81     : -56.435995
 C24     -C34     -C33     -H82     :-176.046948
 C24     -C34     -C35     -H84     : -64.132907
 C24     -C34     -C35     -H85     :  56.286118
 C24     -C34     -C35     -H86     : 175.881942
 C25     -C24     -C23     -H64     :-179.664753
 C25     -C24     -C34     -C33     : -63.253806
 C25     -C24     -C34     -C35     :  61.172040
 C25     -C24     -C34     -H83     : 178.936725
 C25     -C26     -C27     -C28     :  74.800742
 C25     -C26     -C27     -C29     : -47.767323
 C25     -C26     -C27     -H66     :-172.112039
 C26     -C21     -C22     -C31     : 175.572070
 C26     -C25     -C24     -C34     :-179.870756
 C26     -C27     -C28     -H67     : -62.918265
 C26     -C27     -C28     -H68     :  57.197085
 C26     -C27     -C28     -H69     : 176.891982
 C26     -C27     -C29     -H70     :  71.409840
 C26     -C27     -C29     -H71     :-170.380230
 C26     -C27     -C29     -H72     : -49.526381
 C27     -C26     -C25     -H65     :   5.573866
 C28     -C27     -C29     -H70     : -50.657022
 C28     -C27     -C29     -H71     :  67.552907
 C28     -C27     -C29     -H72     :-171.593244
 C29     -C27     -C28     -H67     :  62.827879
 C29     -C27     -C28     -H68     :-177.056771
 C29     -C27     -C28     -H69     : -57.361874
 C30     -C31     -C32     -H77     :  58.354625
 C30     -C31     -C32     -H78     : -61.773282
 C30     -C31     -C32     -H79     : 178.410648
 C31     -C22     -C23     -H64     :   3.685641
 C32     -C31     -C30     -H73     : -50.406801
 C32     -C31     -C30     -H74     :  69.134043
 C32     -C31     -C30     -H75     :-170.209977
 C33     -C34     -C35     -H84     :  60.104192
 C33     -C34     -C35     -H85     :-179.476782
 C33     -C34     -C35     -H86     : -59.880958
 C34     -C24     -C23     -H64     :   0.968346
 C34     -C24     -C25     -H65     :   1.701176
 C35     -C34     -C33     -H80     : -60.347228
 C35     -C34     -C33     -H81     : 179.272011
 C35     -C34     -C33     -H82     :  59.661058
 O36     -C20     -C19     -H63     :   1.573680
 O38     -C17     -C18     -H62     :   3.518472
 H40     -C3      -C4      -H41     : -68.399183
 H40     -C3      -C4      -H42     : 173.905282
 H40     -C3      -C8      -H49     :  66.509054
 H40     -C3      -C8      -H50     :-176.659709
 H41     -C4      -C5      -H43     : -55.799821
 H41     -C4      -C5      -H44     :  61.582161
 H42     -C4      -C5      -H43     :  59.279271
 H42     -C4      -C5      -H44     : 176.661253
 H43     -C5      -C6      -H45     :  61.293441
 H43     -C5      -C6      -H46     : -56.147221
 H44     -C5      -C6      -H45     : -56.066271
 H44     -C5      -C6      -H46     :-173.506933
 H45     -C6      -C7      -H47     : -61.662063
 H45     -C6      -C7      -H48     :  55.565084
 H46     -C6      -C7      -H47     :  55.770224
 H46     -C6      -C7      -H48     : 172.997372
 H47     -C7      -C8      -H49     :  56.728577
 H47     -C7      -C8      -H50     : -58.323618
 H48     -C7      -C8      -H49     : -60.576336
 H48     -C7      -C8      -H50     :-175.628531
 H51     -C9      -C10     -H52     : 177.269451
 H51     -C9      -C10     -H53     :  59.750125
 H51     -C9      -C14     -H60     :-175.870582
 H51     -C9      -C14     -H61     : -57.668429
 H52     -C10     -C11     -H54     :-174.871796
 H52     -C10     -C11     -H55     : -57.453854
 H53     -C10     -C11     -H54     : -57.716058
 H53     -C10     -C11     -H55     :  59.701883
 H54     -C11     -C12     -H56     : 175.318019
 H54     -C11     -C12     -H57     :  57.533792
 H55     -C11     -C12     -H56     :  57.881563
 H55     -C11     -C12     -H57     : -59.902664
 H56     -C12     -C13     -H58     :-175.091706
 H56     -C12     -C13     -H59     : -57.952107
 H57     -C12     -C13     -H58     : -57.296765
 H57     -C12     -C13     -H59     :  59.842834
 H58     -C13     -C14     -H60     : 173.500161
 H58     -C13     -C14     -H61     :  56.512171
 H59     -C13     -C14     -H60     :  56.244363
 H59     -C13     -C14     -H61     : -60.743627
 H62     -C18     -C19     -H63     :   1.144834
 H66     -C27     -C28     -H67     : 179.158608
 H66     -C27     -C28     -H68     : -60.726042
 H66     -C27     -C28     -H69     :  58.968856
 H66     -C27     -C29     -H70     :-163.325785
 H66     -C27     -C29     -H71     : -45.115856
 H66     -C27     -C29     -H72     :  75.737993
 H73     -C30     -C31     -H76     :-162.702274
 H74     -C30     -C31     -H76     : -43.161430
 H75     -C30     -C31     -H76     :  77.494550
 H76     -C31     -C32     -H77     : 173.880183
 H76     -C31     -C32     -H78     :  53.752275
 H76     -C31     -C32     -H79     : -66.063794
 H80     -C33     -C34     -H83     :-177.188994
 H81     -C33     -C34     -H83     :  62.430244
 H82     -C33     -C34     -H83     : -57.180708
 H83     -C34     -C35     -H84     : 176.996873
 H83     -C34     -C35     -H85     : -62.584102
 H83     -C34     -C35     -H86     :  57.011722
 
  nuclear repulsion energy.......          5005.179994852 hartrees
 
 Non-default options chosen:
   SCF calculation type: DFT(b3pw91-d3)              
   DFT=Becke_3_Parameter/HF+Slater+Becke88+PW91+PW-GGAIIC (B3PW91-D3)
   Geometry will be optimized in redundant internal coordinates
   Solvation energy will be computed using PBF
     -solute cavity energy will not be included
     -surface area terms will not be included
   Vibrational frequencies and related properties will be computed
      from analytic second derivatives
   IR intensities will be computed
   Thermochemical properties will be computed
   Maximum number of geometry steps: 100
   Scaling standard convergence criteria by a factor of   5.00
   Solvent: benzene                                                         
   Internal dielectric constant:    1.000
   Continuum dielectric constant:   2.283
   Solvent probe molecule radius:   2.600
  
 Non-default print settings:
     11=  2
  
 Temporary integer options set:
     73=  2
  
  atom       vdw   vdw2    cov     mass  grid  daf  charge   basis
  P1        2.147  2.074  1.060   30.974    Y    Y      Y    ps_6-31g*
  C3        1.949  1.900  0.770   12.000    Y    Y      Y    ps_6-31g*
  C4        1.949  1.900  0.770   12.000    Y    Y      Y    ps_6-31g*
  C5        1.949  1.900  0.770   12.000    Y    Y      Y    ps_6-31g*
  C6        1.949  1.900  0.770   12.000    Y    Y      Y    ps_6-31g*
  C7        1.949  1.900  0.770   12.000    Y    Y      Y    ps_6-31g*
  C8        1.949  1.900  0.770   12.000    Y    Y      Y    ps_6-31g*
  C9        1.949  1.900  0.770   12.000    Y    Y      Y    ps_6-31g*
  C10       1.949  1.900  0.770   12.000    Y    Y      Y    ps_6-31g*
  C11       1.949  1.900  0.770   12.000    Y    Y      Y    ps_6-31g*
  C12       1.949  1.900  0.770   12.000    Y    Y      Y    ps_6-31g*
  C13       1.949  1.900  0.770   12.000    Y    Y      Y    ps_6-31g*
  C14       1.949  1.900  0.770   12.000    Y    Y      Y    ps_6-31g*
  C15       1.949  1.900  0.770   12.000    Y    Y      Y    ps_6-31g*
  C16       1.949  1.900  0.770   12.000    Y    Y      Y    ps_6-31g*
  C17       1.949  1.900  0.770   12.000    Y    Y      Y    ps_6-31g*
  C18       1.949  1.900  0.770   12.000    Y    Y      Y    ps_6-31g*
  C19       1.949  1.900  0.770   12.000    Y    Y      Y    ps_6-31g*
  C20       1.949  1.900  0.770   12.000    Y    Y      Y    ps_6-31g*
  C21       1.949  1.900  0.770   12.000    Y    Y      Y    ps_6-31g*
  C22       1.949  1.900  0.770   12.000    Y    Y      Y    ps_6-31g*
  C23       1.949  1.900  0.770   12.000    Y    Y      Y    ps_6-31g*
  C24       1.949  1.900  0.770   12.000    Y    Y      Y    ps_6-31g*
  C25       1.949  1.900  0.770   12.000    Y    Y      Y    ps_6-31g*
  C26       1.949  1.900  0.770   12.000    Y    Y      Y    ps_6-31g*
  C27       1.949  1.900  0.770   12.000    Y    Y      Y    ps_6-31g*
  C28       1.949  1.900  0.770   12.000    Y    Y      Y    ps_6-31g*
  C29       1.949  1.900  0.770   12.000    Y    Y      Y    ps_6-31g*
  C30       1.949  1.900  0.770   12.000    Y    Y      Y    ps_6-31g*
  C31       1.949  1.900  0.770   12.000    Y    Y      Y    ps_6-31g*
  C32       1.949  1.900  0.770   12.000    Y    Y      Y    ps_6-31g*
  C33       1.949  1.900  0.770   12.000    Y    Y      Y    ps_6-31g*
  C34       1.949  1.900  0.770   12.000    Y    Y      Y    ps_6-31g*
  C35       1.949  1.900  0.770   12.000    Y    Y      Y    ps_6-31g*
  O36       1.702  1.600  0.730   15.995    Y    Y      Y    ps_6-31g*
  C37       1.949  1.900  0.770   12.000    Y    Y      Y    ps_6-31g*
  O38       1.702  1.600  0.730   15.995    Y    Y      Y    ps_6-31g*
  C39       1.949  1.900  0.770   12.000    Y    Y      Y    ps_6-31g*
  H40       1.597  1.150  0.320    1.008    Y    Y      Y    ps_6-31g*
  H41       1.597  1.150  0.320    1.008    Y    Y      Y    ps_6-31g*
  H42       1.597  1.150  0.320    1.008    Y    Y      Y    ps_6-31g*
  H43       1.597  1.150  0.320    1.008    Y    Y      Y    ps_6-31g*
  H44       1.597  1.150  0.320    1.008    Y    Y      Y    ps_6-31g*
  H45       1.597  1.150  0.320    1.008    Y    Y      Y    ps_6-31g*
  H46       1.597  1.150  0.320    1.008    Y    Y      Y    ps_6-31g*
  H47       1.597  1.150  0.320    1.008    Y    Y      Y    ps_6-31g*
  H48       1.597  1.150  0.320    1.008    Y    Y      Y    ps_6-31g*
  H49       1.597  1.150  0.320    1.008    Y    Y      Y    ps_6-31g*
  H50       1.597  1.150  0.320    1.008    Y    Y      Y    ps_6-31g*
  H51       1.597  1.150  0.320    1.008    Y    Y      Y    ps_6-31g*
  H52       1.597  1.150  0.320    1.008    Y    Y      Y    ps_6-31g*
  H53       1.597  1.150  0.320    1.008    Y    Y      Y    ps_6-31g*
  H54       1.597  1.150  0.320    1.008    Y    Y      Y    ps_6-31g*
  H55       1.597  1.150  0.320    1.008    Y    Y      Y    ps_6-31g*
  H56       1.597  1.150  0.320    1.008    Y    Y      Y    ps_6-31g*
  H57       1.597  1.150  0.320    1.008    Y    Y      Y    ps_6-31g*
  H58       1.597  1.150  0.320    1.008    Y    Y      Y    ps_6-31g*
  H59       1.597  1.150  0.320    1.008    Y    Y      Y    ps_6-31g*
  H60       1.597  1.150  0.320    1.008    Y    Y      Y    ps_6-31g*
  H61       1.597  1.150  0.320    1.008    Y    Y      Y    ps_6-31g*
  H62       1.597  1.150  0.320    1.008    Y    Y      Y    ps_6-31g*
  H63       1.597  1.150  0.320    1.008    Y    Y      Y    ps_6-31g*
  H64       1.597  1.150  0.320    1.008    Y    Y      Y    ps_6-31g*
  H65       1.597  1.150  0.320    1.008    Y    Y      Y    ps_6-31g*
  H66       1.597  1.150  0.320    1.008    Y    Y      Y    ps_6-31g*
  H67       1.597  1.150  0.320    1.008    Y    Y      Y    ps_6-31g*
  H68       1.597  1.150  0.320    1.008    Y    Y      Y    ps_6-31g*
  H69       1.597  1.150  0.320    1.008    Y    Y      Y    ps_6-31g*
  H70       1.597  1.150  0.320    1.008    Y    Y      Y    ps_6-31g*
  H71       1.597  1.150  0.320    1.008    Y    Y      Y    ps_6-31g*
  H72       1.597  1.150  0.320    1.008    Y    Y      Y    ps_6-31g*
  H73       1.597  1.150  0.320    1.008    Y    Y      Y    ps_6-31g*
  H74       1.597  1.150  0.320    1.008    Y    Y      Y    ps_6-31g*
  H75       1.597  1.150  0.320    1.008    Y    Y      Y    ps_6-31g*
  H76       1.597  1.150  0.320    1.008    Y    Y      Y    ps_6-31g*
  H77       1.597  1.150  0.320    1.008    Y    Y      Y    ps_6-31g*
  H78       1.597  1.150  0.320    1.008    Y    Y      Y    ps_6-31g*
  H79       1.597  1.150  0.320    1.008    Y    Y      Y    ps_6-31g*
  H80       1.597  1.150  0.320    1.008    Y    Y      Y    ps_6-31g*
  H81       1.597  1.150  0.320    1.008    Y    Y      Y    ps_6-31g*
  H82       1.597  1.150  0.320    1.008    Y    Y      Y    ps_6-31g*
  H83       1.597  1.150  0.320    1.008    Y    Y      Y    ps_6-31g*
  H84       1.597  1.150  0.320    1.008    Y    Y      Y    ps_6-31g*
  H85       1.597  1.150  0.320    1.008    Y    Y      Y    ps_6-31g*
  H86       1.597  1.150  0.320    1.008    Y    Y      Y    ps_6-31g*
  H87       1.597  1.150  0.320    1.008    Y    Y      Y    ps_6-31g*
  H88       1.597  1.150  0.320    1.008    Y    Y      Y    ps_6-31g*
  H89       1.597  1.150  0.320    1.008    Y    Y      Y    ps_6-31g*
  H90       1.597  1.150  0.320    1.008    Y    Y      Y    ps_6-31g*
  H91       1.597  1.150  0.320    1.008    Y    Y      Y    ps_6-31g*
  H92       1.597  1.150  0.320    1.008    Y    Y      Y    ps_6-31g*
  
  end of program pre
   
 Time(pre)  user:       0.801  user+sys:       0.801  wallclock:       0.880
  
  start of program onee
  
  smallest eigenvalue of S:    3.083E-04
  number of canonical orbitals.....          640
  end of program onee
   
 Time(onee)  user:       0.805  user+sys:       0.805  wallclock:       0.691
  
  start of program hfig
  
  initial wavefunction generated automatically from atomic wavefunctions
 
  Irreducible     Total no   No of occupied orbitals 
  representation  orbitals   Shell_1  Shell_2    ...
  No Symm          640        147
  ------------------------
  Orbital occupation/shell    1.000
 
  end of program hfig
   
 Time(hfig)  user:       1.085  user+sys:       1.085  wallclock:       1.148
  
  start of program probe
  
  end of program probe
   
 Time(probe)  user:       0.595  user+sys:       0.595  wallclock:       0.539
  
  start of program grid
  
   grid     grid set  grid #  grid sym
  ------    --------  ------  --------
  coarse        0        0        1
  medium        2        1        1
  fine          0        0        1
  ultrafine     4        2        1
  charge       -1        3        1
  gradient      4        2        1
  density       0        0        1
  DFT-fine    -11        4        1
  DFT-med.    -10        5        1
  DFT-grad    -12        6        1
  DFT-der2     -8        7        1
  DFT-cphf     -9        8        1
  LMP2-enrg     4        2        1
  LMP2-grad     2        1        1
  DFT-cphf2   -15        9        1
  PBF-dens      0        0        1
  plotting      0        0        1
  Rel-grad    -17        0        1
  
  number of gridpoints: 
     atom           P1          C3          C4          C5          C6          C7          C8
  grid # 1         540          91          86          86          86          86          86
  grid # 2         540         321         298         299         297         301         297
  grid # 3          47           6           6           6           6           6           6
  grid # 4        4304        4304        4304        4304        4304        4304        4304
  grid # 5        1192        1192        1192        1192        1192        1192        1192
  grid # 6        8076        5226        5226        5226        5226        5226        5226
  grid # 7       22092       12650       12650       12650       12650       12650       12650
  grid # 8         634         688         688         688         688         688         688
  grid # 9         340         358         358         358         358         358         358
   
  number of gridpoints: 
     atom           C9         C10         C11         C12         C13         C14         C15
  grid # 1          91          86          86          86          86          86         100
  grid # 2         314         296         296         293         300         294         360
  grid # 3           6           6           6           6           6           6           7
  grid # 4        4304        4304        4304        4304        4304        4304        4304
  grid # 5        1192        1192        1192        1192        1192        1192        1192
  grid # 6        5226        5226        5226        5226        5226        5226        5226
  grid # 7       12650       12650       12650       12650       12650       12650       12650
  grid # 8         688         688         688         688         688         688         688
  grid # 9         358         358         358         358         358         358         358
   
  number of gridpoints: 
     atom          C16         C17         C18         C19         C20         C21         C22
  grid # 1          98          96          96          96          97          97          98
  grid # 2         350         352         342         342         351         350         363
  grid # 3           6          15          32          32          14          10          16
  grid # 4        4304        4304        4304        4304        4304        4304        4304
  grid # 5        1192        1192        1192        1192        1192        1192        1192
  grid # 6        5226        5226        5226        5226        5226        5226        5226
  grid # 7       12650       12650       12650       12650       12650       12650       12650
  grid # 8         688         688         688         688         688         688         688
  grid # 9         358         358         358         358         358         358         358
   
  number of gridpoints: 
     atom          C23         C24         C25         C26         C27         C28         C29
  grid # 1          94         100          93          99          91          78          79
  grid # 2         344         360         343         363         318         276         271
  grid # 3          31          17          29          16           6           6           6
  grid # 4        4304        4304        4304        4304        4304        4304        4304
  grid # 5        1192        1192        1192        1192        1192        1192        1192
  grid # 6        5226        5226        5226        5226        5226        5226        5226
  grid # 7       12650       12650       12650       12650       12650       12650       12650
  grid # 8         688         688         688         688         688         688         688
  grid # 9         358         358         358         358         358         358         358
   
  number of gridpoints: 
     atom          C30         C31         C32         C33         C34         C35         O36
  grid # 1          78          91          79          79          91          79         110
  grid # 2         274         319         274         272         319         272         415
  grid # 3           6           6           6           6           6           6          11
  grid # 4        4304        4304        4304        4304        4304        4304        4304
  grid # 5        1192        1192        1192        1192        1192        1192        1192
  grid # 6        5226        5226        5226        5226        5226        5226        5226
  grid # 7       12650       12650       12650       12650       12650       12650       23504
  grid # 8         688         688         688         688         688         688         714
  grid # 9         358         358         358         358         358         358         360
   
  number of gridpoints: 
     atom          C37         O38         C39         H40         H41         H42         H43
  grid # 1          77         114          77         102         106         102         112
  grid # 2         264         437         265         409         425         402         445
  grid # 3           6          44           6          71         148          40         320
  grid # 4        4304        4304        4304        4304        4304        4304        4304
  grid # 5        1192        1192        1192        1192        1192        1192        1192
  grid # 6        5226        5226        5226        5226        5226        5226        5226
  grid # 7       12650       23504       12650       13718       13718       13718       13718
  grid # 8         688         714         688         744         744         744         744
  grid # 9         358         360         358         382         382         382         382
   
  number of gridpoints: 
     atom          H44         H45         H46         H47         H48         H49         H50
  grid # 1         109         112         108         112         108         105         107
  grid # 2         435         446         442         446         439         421         426
  grid # 3         232         331         251         328         247         162         188
  grid # 4        4304        4304        4304        4304        4304        4304        4304
  grid # 5        1192        1192        1192        1192        1192        1192        1192
  grid # 6        5226        5226        5226        5226        5226        5226        5226
  grid # 7       13718       13718       13718       13718       13718       13718       13718
  grid # 8         744         744         744         744         744         744         744
  grid # 9         382         382         382         382         382         382         382
   
  number of gridpoints: 
     atom          H51         H52         H53         H54         H55         H56         H57
  grid # 1         101          98         103         109         111         110         112
  grid # 2         400         394         414         441         440         444         447
  grid # 3          63          62         101         243         269         264         334
  grid # 4        4304        4304        4304        4304        4304        4304        4304
  grid # 5        1192        1192        1192        1192        1192        1192        1192
  grid # 6        5226        5226        5226        5226        5226        5226        5226
  grid # 7       13718       13718       13718       13718       13718       13718       13718
  grid # 8         744         744         744         744         744         744         744
  grid # 9         382         382         382         382         382         382         382
   
  number of gridpoints: 
     atom          H58         H59         H60         H61         H62         H63         H64
  grid # 1         108         112         106         104         112         113         105
  grid # 2         440         446         435         419         432         430         412
  grid # 3         251         328         215         140         259         261         128
  grid # 4        4304        4304        4304        4304        4304        4304        4304
  grid # 5        1192        1192        1192        1192        1192        1192        1192
  grid # 6        5226        5226        5226        5226        5226        5226        5226
  grid # 7       13718       13718       13718       13718       13718       13718       13718
  grid # 8         744         744         744         744         744         744         744
  grid # 9         382         382         382         382         382         382         382
   
  number of gridpoints: 
     atom          H65         H66         H67         H68         H69         H70         H71
  grid # 1         104         102         107         107         110         105         108
  grid # 2         404         414         434         433         443         425         432
  grid # 3          68          89         247         220         320         226         237
  grid # 4        4304        4304        4304        4304        4304        4304        4304
  grid # 5        1192        1192        1192        1192        1192        1192        1192
  grid # 6        5226        5226        5226        5226        5226        5226        5226
  grid # 7       13718       13718       13718       13718       13718       13718       13718
  grid # 8         744         744         744         744         744         744         744
  grid # 9         382         382         382         382         382         382         382
   
  number of gridpoints: 
     atom          H72         H73         H74         H75         H76         H77         H78
  grid # 1         105         105         108         108         103         106         108
  grid # 2         424         428         441         435         417         430         434
  grid # 3         169         242         324         257         117         246         243
  grid # 4        4304        4304        4304        4304        4304        4304        4304
  grid # 5        1192        1192        1192        1192        1192        1192        1192
  grid # 6        5226        5226        5226        5226        5226        5226        5226
  grid # 7       13718       13718       13718       13718       13718       13718       13718
  grid # 8         744         744         744         744         744         744         744
  grid # 9         382         382         382         382         382         382         382
   
  number of gridpoints: 
     atom          H79         H80         H81         H82         H83         H84         H85
  grid # 1          99         108         111         110         108         106         111
  grid # 2         396         433         447         444         431         434         447
  grid # 3         119         238         340         324         222         245         337
  grid # 4        4304        4304        4304        4304        4304        4304        4304
  grid # 5        1192        1192        1192        1192        1192        1192        1192
  grid # 6        5226        5226        5226        5226        5226        5226        5226
  grid # 7       13718       13718       13718       13718       13718       13718       13718
  grid # 8         744         744         744         744         744         744         744
  grid # 9         382         382         382         382         382         382         382
   
  number of gridpoints: 
     atom          H86         H87         H88         H89         H90         H91         H92
  grid # 1         110         112         111         112         113         111         111
  grid # 2         444         446         439         437         451         439         438
  grid # 3         324         334         304         315         367         314         304
  grid # 4        4304        4304        4304        4304        4304        4304        4304
  grid # 5        1192        1192        1192        1192        1192        1192        1192
  grid # 6        5226        5226        5226        5226        5226        5226        5226
  grid # 7       13718       13718       13718       13718       13718       13718       13718
  grid # 8         744         744         744         744         744         744         744
  grid # 9         382         382         382         382         382         382         382
   
  number of gridpoints: 
     atom        total
  grid # 1        9575
  grid # 2       35192
  grid # 3       12793
  grid # 4      391664
  grid # 5      108472
  grid # 6      478416
  grid # 7     1238904
  grid # 8       65574
  grid # 9       33836
   
  end of program grid
   
 Time(grid)  user:     184.723  user+sys:     184.723  wallclock:      94.635
  
  start of program rwr
  
  end of program rwr
   
 Time(rwr)  user:      19.278  user+sys:      19.278  wallclock:      24.355
  
  start of program scf
  
 number of electrons..........        294
 number of alpha electrons....        147
 number of beta electrons.....        147
 number of orbitals, total....        640
 number of doubly-occ'd orbs..        147
 number of open shell orbs....          0
 number of occupied orbitals..        147
 number of virtual orbitals...        493
 number of hamiltonians.......          1
 number of shells.............          1
 SCF type: DFT=Becke_3_Parameter/HF+Slater+Becke88+PW91+PW-GGAIIC (B3PW91-D3)
 Energy computed using pseudospectral method.
 Convergence Criterion:
    Energy (econv):       1.00E-05
    RMS density (dconv):  5.00E-06
  
       i  u  d  i  g                   
       t  p  i  c  r                                 RMS    maximum
       e  d  i  u  i                       energy  density   DIIS  
       r  t  s  t  d       total energy    change  change    error 
  
etot    1  N  N  5  M   -1852.28627680911           3.2E-03  9.5E-02
etot    2  Y  Y  6  M   -1856.10620090739  3.8E+00  2.4E-03  3.3E-02
etot    3  Y  Y  6  M   -1856.40224021189  3.0E-01  1.2E-03  5.6E-02
etot    4  N  Y  2  U   -1856.70358081100  3.0E-01  7.3E-04  4.5E-02
etot    5  Y  Y  6  M   -1856.77536182343  7.2E-02  2.8E-04  2.8E-02
etot    6  N  Y  2  U   -1856.78060629720  5.2E-03  5.1E-04  1.8E-02
etot    7  Y  Y  6  M   -1856.78076242288  1.6E-04  1.1E-04  6.2E-03
etot    8  Y  Y  6  M   -1856.78486003303  4.1E-03  3.5E-05  1.5E-03
etot    9  N  Y  2  U   -1856.78539044681  5.3E-04  9.8E-06  3.9E-04
etot   10  N  Y  2  U   -1856.78539768996  7.2E-06  2.9E-06  9.9E-05
etot   11  N  N  2  U   -1856.78539945547  1.8E-06  0.0E+00  0.0E+00
 
  Computing the dispersion energy correction and its gradients...
  
  
 Energy components, in hartrees:
   (A)  Nuclear repulsion............    5005.17999485219
   (E)  Total one-electron terms.....  -12495.27086633008
   (F)    Electron-nuclear...........  -14340.40019401963
   (H)    Kinetic....................    1845.12932768955
   (I)  Total two-electron terms.....    5633.30547202243
   (J)    Coulomb....................    5883.09107309229
   (K)    Exchange+Correlation.......    -249.78560106986
   (L)  Electronic energy............   -6861.96539430765  (E+I)
   (M)  -V/T.........................       2.00631721126  (-(A+F+I)/H)
   (N0) D3 correction................      -0.13962885713
   (N)  Total energy.................   -1856.92502831260  (A+L+N0)
   (O)  Gas phase energy.............   -1856.92502831260
  
 SCFE: SCF energy: DFT(b3pw91-d3)     -1856.92502831260 hartrees   iterations:  11
  
 
 HOMO energy:    -0.17271
 LUMO energy:    -0.02195
 
  Orbital energies (hartrees): 
   -77.00318   -19.16711   -19.15878   -10.23438   -10.23383   -10.23081
   -10.22750   -10.18358   -10.17692   -10.17586   -10.17376   -10.16932
   -10.16577   -10.16511   -10.16490   -10.16462   -10.16440   -10.16132
   -10.15819   -10.15651   -10.15649   -10.15631   -10.15606   -10.15537
   -10.15463   -10.15427   -10.15410   -10.15303   -10.15124   -10.14972
   -10.14962   -10.14909   -10.14880   -10.14733   -10.14724   -10.14689
   -10.14606   -10.14080    -6.51005    -4.66845    -4.66766    -4.66239
    -1.07414    -1.06372    -0.86612    -0.84401    -0.82705    -0.82066
    -0.80410    -0.79919    -0.77677    -0.77053    -0.75748    -0.74366
    -0.73094    -0.72894    -0.72594    -0.72529    -0.70401    -0.70196
    -0.67763    -0.67176    -0.66826    -0.66571    -0.64715    -0.62102
    -0.61302    -0.59956    -0.59202    -0.58852    -0.58768    -0.58191
    -0.57762    -0.55079    -0.54438    -0.53849    -0.53230    -0.52411
    -0.52181    -0.50784    -0.50416    -0.48294    -0.47939    -0.47558
    -0.46621    -0.46123    -0.45997    -0.44805    -0.44392    -0.43597
    -0.43122    -0.43062    -0.42881    -0.42554    -0.42512    -0.42239
    -0.42018    -0.41660    -0.41475    -0.41317    -0.41102    -0.40665
    -0.40233    -0.39726    -0.39420    -0.39229    -0.38778    -0.37893
    -0.37404    -0.37094    -0.36882    -0.36655    -0.36528    -0.36328
    -0.35940    -0.35812    -0.35207    -0.34913    -0.34782    -0.34595
    -0.34244    -0.33502    -0.33275    -0.32962    -0.32878    -0.32657
    -0.32611    -0.32299    -0.32123    -0.31791    -0.31369    -0.31274
    -0.30710    -0.30464    -0.29865    -0.29767    -0.29577    -0.29338
    -0.28427    -0.28369    -0.27984    -0.26971    -0.24727    -0.21960
    -0.21556    -0.20159    -0.17271    -0.02195     0.00421     0.01376
     0.02189     0.07498     0.07907     0.08536     0.08968     0.09418
     0.09928
 
  end of program scf
   
 Time(scf)  user:     376.154  user+sys:     376.154  wallclock:     199.503
  
  start of program der1a
  
  end of program der1a
   
 Time(der1a)  user:       1.454  user+sys:       1.454  wallclock:       1.009
  
  start of program rwr
  
  end of program rwr
   
 Time(rwr)  user:      21.627  user+sys:      21.627  wallclock:      29.082
  
  start of program der1b
  
   
  forces (hartrees/bohr) : total     
   
 atom  label           x              y              z
 ---- --------   -------------  -------------  -------------
    1 P1          2.368214E-02  -2.024966E-02   7.764775E-02
    2 C3          9.122699E-03   4.248785E-03  -2.394515E-02
    3 C4         -9.673859E-03  -1.127714E-02  -4.554682E-03
    4 C5          3.815885E-03  -4.975428E-03  -3.421615E-03
    5 C6          9.532738E-03   2.252581E-04  -3.662210E-03
    6 C7          4.862551E-03   4.467318E-03   5.744959E-04
    7 C8         -6.527909E-03   1.010406E-02   1.431998E-02
    8 C9         -1.903118E-02   3.171780E-02  -4.075958E-02
    9 C10        -4.742399E-03  -6.855175E-03   1.053403E-03
   10 C11        -6.623174E-03   9.284872E-04   4.771438E-04
   11 C12        -5.356202E-03   7.899109E-03  -3.347638E-03
   12 C13         9.987588E-04   6.998209E-03  -7.010286E-04
   13 C14         1.394983E-02   2.007177E-04   3.853006E-03
   14 C15        -8.344913E-04   5.833862E-03  -2.131452E-02
   15 C16        -1.934234E-03  -1.618562E-03  -4.232630E-02
   16 C17        -1.020450E-03  -1.280829E-02  -2.887185E-02
   17 C18        -2.789411E-03  -2.389083E-03  -4.759310E-03
   18 C19        -2.198358E-03  -7.553588E-04  -8.718040E-03
   19 C20        -2.079318E-02  -2.814441E-02  -1.712413E-02
   20 C21         2.670399E-03   5.851692E-03   6.035281E-02
   21 C22         3.521542E-03   3.585705E-03   8.129049E-03
   22 C23         7.481331E-04  -1.434781E-03   3.764363E-03
   23 C24        -4.520191E-03   1.920325E-03  -1.359497E-02
   24 C25         2.548489E-04  -4.207411E-04   3.469654E-03
   25 C26        -8.491647E-04  -1.325646E-03   1.064885E-02
   26 C27         1.336751E-03  -8.695663E-03  -1.084364E-02
   27 C28        -3.954108E-03  -1.420785E-02  -6.965484E-04
   28 C29         7.803852E-03   5.969023E-03   1.933070E-03
   29 C30        -8.233710E-03  -1.033703E-02  -6.060961E-04
   30 C31        -3.893144E-03   8.934923E-03  -8.524734E-03
   31 C32         2.546714E-03   1.149736E-02   7.637400E-03
   32 C33        -2.261687E-03  -1.010462E-02   4.863366E-03
   33 C34        -2.977762E-03   1.855052E-03   5.115616E-03
   34 C35         6.607888E-03   7.708221E-03   5.286436E-03
   35 O36         1.608608E-02   7.172312E-03   1.688283E-02
   36 C37        -5.598668E-03  -8.742596E-03   1.939431E-03
   37 O38         6.658480E-03   1.062744E-02   2.657216E-02
   38 C39         3.523689E-03   6.868330E-03  -8.047493E-03
   39 H40         4.195242E-03  -6.648045E-03   1.822929E-03
   40 H41         3.737638E-03   7.083894E-03   5.135848E-03
   41 H42        -3.469126E-03   6.742409E-03  -8.279624E-03
   42 H43        -5.181563E-03   9.851552E-03   1.188825E-03
   43 H44         1.777409E-03  -4.170536E-03   8.850362E-03
   44 H45        -8.395255E-03  -2.023983E-03   7.072358E-03
   45 H46        -2.647342E-03   4.756438E-03  -8.532530E-03
   46 H47        -8.226931E-03  -4.811641E-03  -6.603690E-03
   47 H48         1.583302E-03  -5.033187E-03   8.059255E-03
   48 H49         2.894036E-03  -9.844594E-03  -1.928564E-03
   49 H50        -3.071815E-03   3.145873E-03  -7.356563E-03
   50 H51        -3.037109E-03   8.743939E-03   9.325481E-03
   51 H52         3.833653E-03   2.145510E-03  -1.930218E-02
   52 H53         5.229525E-03   8.746262E-03   6.439819E-03
   53 H54         1.352502E-04   1.509285E-03   9.661991E-03
   54 H55         1.047777E-02  -1.640182E-03  -4.235385E-03
   55 H56         2.668580E-04  -1.768596E-03  -9.946717E-03
   56 H57         5.423185E-03  -7.459559E-03   6.411022E-03
   57 H58        -2.859854E-04   7.690813E-04   9.865409E-03
   58 H59        -3.546132E-03  -1.045520E-02  -3.493439E-03
   59 H60         9.136350E-04  -6.322336E-04  -9.090796E-03
   60 H61        -8.369546E-03  -1.088430E-03   6.571170E-03
   61 H62         5.225661E-03   5.661963E-03   7.283988E-03
   62 H63         2.149507E-03   1.476960E-03   9.326031E-03
   63 H64         4.141408E-03  -2.018961E-03  -6.748663E-03
   64 H65        -3.525491E-03   2.634171E-03  -7.418895E-03
   65 H66         2.702825E-04   7.518602E-03   8.876636E-03
   66 H67        -1.548748E-04   4.522820E-03  -9.429192E-03
   67 H68         9.463896E-03   4.078594E-03   5.388156E-03
   68 H69        -6.438044E-03   6.271305E-03   4.821262E-03
   69 H70        -4.703654E-03   3.770593E-03  -8.507153E-03
   70 H71        -9.094339E-03   3.990233E-03   3.940607E-03
   71 H72        -1.865393E-03  -1.034159E-02  -1.169906E-03
   72 H73         4.082115E-03   7.489332E-05  -9.721351E-03
   73 H74         9.377001E-03  -2.779399E-03   5.279546E-03
   74 H75         1.514303E-03   9.428640E-03  -1.857222E-03
   75 H76         2.368979E-03  -8.554487E-03   9.168422E-03
   76 H77         1.857484E-04  -3.995649E-03  -9.622086E-03
   77 H78         7.557873E-03  -6.393057E-03   3.349772E-03
   78 H79        -1.452916E-02  -1.133272E-02   9.642116E-03
   79 H80        -8.795708E-03   5.600624E-03   2.180687E-03
   80 H81         9.437089E-03   5.858809E-03   3.486867E-03
   81 H82         8.804923E-04   1.076135E-03  -1.040290E-02
   82 H83         8.123099E-03  -4.028590E-03  -6.548025E-03
   83 H84        -9.892048E-03   3.612722E-03   2.010294E-03
   84 H85         1.042162E-03  -1.138005E-02   3.020720E-03
   85 H86        -1.744163E-04  -1.002607E-03  -1.044579E-02
   86 H87        -7.869225E-03  -9.909431E-03   6.235858E-03
   87 H88         1.050329E-02  -4.424969E-03  -2.805837E-03
   88 H89        -7.191658E-03   9.195172E-03  -2.684991E-03
   89 H90         4.635059E-03   1.094333E-02  -7.735040E-03
   90 H91         7.470885E-03  -9.419066E-03   6.609493E-04
   91 H92        -1.089891E-02   2.679789E-03   1.541470E-03
 -------------   -------------  -------------  -------------
     total        1.442329E-03   1.004786E-03   1.452590E-03
   
  end of program der1b
   
 Time(der1b)  user:     158.862  user+sys:     158.862  wallclock:      82.423
  
  start of program geopt
  
 ----------------------------------------------------------------------------
  Geometry optimization step  1
  Total energy:     -1856.92502831260 hartrees
 ----------------------------------------------------------------------------
  
  
  Level shifts adjusted to satisfy step-size constraints
   Step size:    0.3000161
   Cos(theta):   0.9631185
   Final level shift:  -4.2613477E-01
  
  gradient maximum:        7.0709E-02 .  (  2.2500E-03 )
  gradient rms:            1.3138E-02 .  (  1.5000E-03 )
  displacement maximum:    8.7473E-02 .  (  9.0000E-03 )
  displacement rms:        1.6299E-02 .  (  6.0000E-03 )
  
  predicted energy change:  -4.9625E-02
  step size:     0.28184
  trust radius:  0.30000
  
  molecular structure not yet converged...
  
  center of mass moved by:
     x:     2.8317E-03     y:     2.9678E-02     z:     2.1653E-02
  
  new geometry: 
                                   angstroms
  atom               x                 y                 z
  P1            0.0180247761      0.0835399329      0.0163562091 
  C3            1.7133562674     -0.0110922007     -0.7415557702 
  C4            2.2589579258     -1.4240926196     -1.0084056125 
  C5            3.5465231073     -1.3588345449     -1.8406989502 
  C6            4.6187327586     -0.5317949904     -1.1193018312 
  C7            4.0871989844      0.8643658014     -0.7691554957 
  C8            2.7856097393      0.7731287197      0.0385373512 
  C9           -0.7365573730      1.5376489885     -0.7523152022 
  C10          -2.2052178515      1.6833850975     -0.3381003118 
  C11          -2.9007973717      2.8677805131     -1.0143806281 
  C12          -2.1594151699      4.1713343787     -0.7094444433 
  C13          -0.6962013321      4.0577416096     -1.1488443847 
  C14           0.0001054010      2.8622597016     -0.4814822029 
  C15          -0.9374691324     -1.3257624975     -0.6499819261 
  C16          -1.6808578165     -2.2289889824      0.1667853082 
  C17          -2.4857427553     -3.2070733104     -0.4622110099 
  C18          -2.5746830703     -3.2528558745     -1.8560688572 
  C19          -1.8742852914     -2.3531479826     -2.6452580818 
  C20          -1.0538739191     -1.3845182031     -2.0614544016 
  C21          -1.6666987209     -2.3221009881      1.6250111414 
  C22          -2.8042662992     -1.9841323330      2.4109330938 
  C23          -2.7402184733     -2.1144120069      3.8020110618 
  C24          -1.6140757869     -2.5893072487      4.4683459276 
  C25          -0.5197821140     -2.9523161950      3.6851137121 
  C26          -0.5193405510     -2.8268808579      2.2890236681 
  C27           0.6654489628     -3.4172549564      1.5443626253 
  C28           0.5243446464     -4.9519164503      1.5424273048 
  C29           2.0331614661     -3.0142933690      2.1166643931 
  C30          -5.3257774669     -2.2495942781      2.2152984901 
  C31          -4.0996356412     -1.3801471723      1.8859428611 
  C32          -4.3494383564     -0.0006002876      2.5226982918 
  C33          -1.4332236421     -4.1896898368      6.3998544755 
  C34          -1.5829280517     -2.7213508732      5.9760860412 
  C35          -0.4749917127     -1.8515531756      6.5873831372 
  O36          -0.3572469711     -0.5150444987     -2.8363560743 
  C37          -0.3281384536     -0.5968076374     -4.2435640483 
  O38          -3.1135787476     -4.1243323928      0.3190756984 
  C39          -3.7586191996     -5.2563165657     -0.2208629736 
  H40           1.6041633520      0.4845024881     -1.7284888053 
  H41           1.5109875476     -2.0537491327     -1.5270816129 
  H42           2.4796066396     -1.9290297440     -0.0502567641 
  H43           3.9229930986     -2.3833782940     -2.0383159924 
  H44           3.3276057915     -0.8989444759     -2.8263669053 
  H45           5.5282699621     -0.4493543704     -1.7486945481 
  H46           4.9160195594     -1.0518027059     -0.1854873388 
  H47           4.8492146158      1.4265119539     -0.1920003857 
  H48           3.9027984660      1.4366530954     -1.7017758509 
  H49           2.4335054068      1.7893837345      0.2980938430 
  H50           2.9866458356      0.2680114117      1.0042322219 
  H51          -0.7482657822      1.3614227826     -1.8462156685 
  H52          -2.2406481937      1.8381021460      0.7540236206 
  H53          -2.7575563170      0.7491804882     -0.5592919613 
  H54          -2.9337002194      2.7031213414     -2.1111596326 
  H55          -3.9515985357      2.9358549228     -0.6660115674 
  H56          -2.2003815850      4.3766472945      0.3799135715 
  H57          -2.6531458220      5.0232424116     -1.2200667943 
  H58          -0.6520568760      3.9356319450     -2.2508631780 
  H59          -0.1517744135      4.9930753176     -0.9064249461 
  H60           0.0564571649      3.0357090434      0.6128998869 
  H61           1.0383175492      2.8049339275     -0.8620057885 
  H62          -3.1890219773     -4.0089593762     -2.3552665430 
  H63          -1.9872277587     -2.4256365101     -3.7322750116 
  H64          -3.6060154868     -1.8316375935      4.4096717587 
  H65           0.3536544769     -3.3637637877      4.1983645754 
  H66           0.6295368475     -3.1242757344      0.4806546307 
  H67           0.5592755945     -5.3661846881      2.5683814530 
  H68          -0.4385012061     -5.2595493318      1.0901434203 
  H69           1.3389518025     -5.4270863343      0.9608064232 
  H70           2.2454730524     -3.4968406999      3.0887349279 
  H71           2.8497229075     -3.3265484509      1.4382629595 
  H72           2.1036594739     -1.9209626897      2.2655252480 
  H73          -5.5900093768     -2.2089931455      3.2887513870 
  H74          -6.2135008950     -1.9048353091      1.6506915288 
  H75          -5.1567621052     -3.3126902381      1.9664270605 
  H76          -4.0654211388     -1.2831599733      0.7844271861 
  H77          -4.5627981621     -0.0727935807      3.6060423411 
  H78          -5.2123484819      0.5068596093      2.0481625349 
  H79          -3.4729570066      0.6538254317      2.4194221122 
  H80          -0.4677165405     -4.6156117557      6.0671395246 
  H81          -2.2424197668     -4.8093696065      5.9683829062 
  H82          -1.4790599110     -4.2917518353      7.5015857577 
  H83          -2.5503344683     -2.3575148047      6.3808889423 
  H84           0.5306935863     -2.1827912826      6.2663507041 
  H85          -0.5937946561     -0.7930331912      6.2871891529 
  H86          -0.5011601875     -1.8955393367      7.6936072739 
  H87           0.3572862790      0.1962985606     -4.5897948414 
  H88          -1.3393108787     -0.4169220192     -4.6573169928 
  H89           0.0603177098     -1.5847955529     -4.5583477286 
  H90          -4.0810280483     -5.8790170634      0.6314742564 
  H91          -4.6447182534     -4.9460931492     -0.8082698776 
  H92          -3.0516051709     -5.8358799810     -0.8463963175 
   
 
  bond lengths (angstroms):
 
 P1      -C3      :   1.859445      P1      -C9      :   1.809609
 P1      -C15     :   1.828417      C3      -C4      :   1.538005
 C3      -C8      :   1.540544      C3      -H40     :   1.109763
 C4      -C5      :   1.534534      C4      -H41     :   1.106775
 C4      -H42     :   1.105304      C5      -C6      :   1.534289
 C5      -H43     :   1.109266      C5      -H44     :   1.109489
 C6      -C7      :   1.534404      C6      -H45     :   1.109139
 C6      -H46     :   1.109413      C7      -C8      :   1.534544
 C7      -H47     :   1.108956      C7      -H48     :   1.109638
 C8      -H49     :   1.106400      C8      -H50     :   1.108208
 C9      -C10     :   1.532898      C9      -C14     :   1.539681
 C9      -H51     :   1.108066      C10     -C11     :   1.531006
 C10     -H52     :   1.103597      C10     -H53     :   1.107584
 C11     -C12     :   1.530322      C11     -H54     :   1.109558
 C11     -H55     :   1.109134      C12     -C13     :   1.531982
 C12     -H56     :   1.109294      C12     -H57     :   1.109167
 C13     -C14     :   1.536031      C13     -H58     :   1.109642
 C13     -H59     :   1.109061      C14     -H60     :   1.109474
 C14     -H61     :   1.107235      C15     -C16     :   1.426728
 C15     -C20     :   1.417483      C16     -C17     :   1.414258
 C16     -C21     :   1.461264      C17     -C18     :   1.397443
 C17     -O38     :   1.358658      C18     -C19     :   1.386669
 C18     -H62     :   1.094670      C19     -C20     :   1.397192
 C19     -H63     :   1.095270      C20     -O36     :   1.357110
 C21     -C22     :   1.423361      C21     -C26     :   1.418501
 C22     -C23     :   1.398632      C22     -C31     :   1.522628
 C23     -C24     :   1.392022      C23     -H64     :   1.094905
 C24     -C25     :   1.393810      C24     -C34     :   1.513832
 C25     -C26     :   1.401714      C25     -H65     :   1.093438
 C26     -C27     :   1.518811      C27     -C28     :   1.541136
 C27     -C29     :   1.536406      C27     -H66     :   1.103903
 C28     -H67     :   1.106987      C28     -H68     :   1.107371
 C28     -H69     :   1.107996      C29     -H70     :   1.105825
 C29     -H71     :   1.106573      C29     -H72     :   1.105668
 C30     -C31     :   1.538778      C30     -H73     :   1.106241
 C30     -H74     :   1.107110      C30     -H75     :   1.104842
 C31     -C32     :   1.539808      C31     -H76     :   1.106306
 C32     -H77     :   1.106512      C32     -H78     :   1.107842
 C32     -H79     :   1.098708      C33     -C34     :   1.535581
 C33     -H80     :   1.106487      C33     -H81     :   1.106783
 C33     -H82     :   1.107398      C34     -C35     :   1.535498
 C34     -H83     :   1.110008      C35     -H84     :   1.106428
 C35     -H85     :   1.106659      C35     -H86     :   1.107408
 O36     -C37     :   1.409882      C37     -H87     :   1.103948
 C37     -H88     :   1.107258      C37     -H89     :   1.107297
 O38     -C39     :   1.410319      C39     -H90     :   1.103713
 C39     -H91     :   1.107455      C39     -H92     :   1.107725
 
  bond angles:
 
 C9      -P1      -C3      : 104.355679  C15     -P1      -C3      : 106.779335
 C15     -P1      -C9      : 104.279189  C4      -C3      -P1      : 116.162167
 C8      -C3      -P1      : 113.721162  C8      -C3      -C4      : 107.976483
 H40     -C3      -P1      : 104.480530  H40     -C3      -C4      : 106.910936
 H40     -C3      -C8      : 106.946616  C5      -C4      -C3      : 110.651783
 H41     -C4      -C3      : 111.360844  H41     -C4      -C5      : 109.697951
 H42     -C4      -C3      : 109.883803  H42     -C4      -C5      : 108.789622
 H42     -C4      -H41     : 106.335357  C6      -C5      -C4      : 110.748634
 H43     -C5      -C4      : 110.005592  H43     -C5      -C6      : 110.148667
 H44     -C5      -C4      : 109.506564  H44     -C5      -C6      : 109.400219
 H44     -C5      -H43     : 106.950412  C7      -C6      -C5      : 110.835402
 H45     -C6      -C5      : 110.262670  H45     -C6      -C7      : 110.238646
 H46     -C6      -C5      : 109.291071  H46     -C6      -C7      : 109.101485
 H46     -C6      -H45     : 107.021960  C8      -C7      -C6      : 111.089965
 H47     -C7      -C6      : 109.997172  H47     -C7      -C8      : 109.818290
 H48     -C7      -C6      : 109.575553  H48     -C7      -C8      : 109.395381
 H48     -C7      -H47     : 106.868508  C7      -C8      -C3      : 110.738398
 H49     -C8      -C3      : 111.399439  H49     -C8      -C7      : 109.803620
 H50     -C8      -C3      : 109.602584  H50     -C8      -C7      : 109.383297
 H50     -C8      -H49     : 105.781185  C10     -C9      -P1      : 111.169412
 C14     -C9      -P1      : 114.650328  C14     -C9      -C10     : 109.212816
 H51     -C9      -P1      : 107.214628  H51     -C9      -C10     : 105.768954
 H51     -C9      -C14     : 108.392987  C11     -C10     -C9      : 112.921956
 H52     -C10     -C9      : 108.149354  H52     -C10     -C11     : 108.305896
 H53     -C10     -C9      : 110.098546  H53     -C10     -C11     : 109.738284
 H53     -C10     -H52     : 107.449670  C12     -C11     -C10     : 110.539127
 H54     -C11     -C10     : 109.591051  H54     -C11     -C12     : 109.739492
 H55     -C11     -C10     : 109.826540  H55     -C11     -C12     : 110.127736
 H55     -C11     -H54     : 106.947025  C13     -C12     -C11     : 110.023310
 H56     -C12     -C11     : 109.599804  H56     -C12     -C13     : 109.308797
 H57     -C12     -C11     : 110.295492  H57     -C12     -C13     : 110.491199
 H57     -C12     -H56     : 107.067431  C14     -C13     -C12     : 111.472891
 H58     -C13     -C12     : 109.329715  H58     -C13     -C14     : 109.135681
 H59     -C13     -C12     : 110.098113  H59     -C13     -C14     : 109.808824
 H59     -C13     -H58     : 106.879314  C13     -C14     -C9      : 112.102398
 H60     -C14     -C9      : 109.408908  H60     -C14     -C13     : 109.263439
 H61     -C14     -C9      : 110.098307  H61     -C14     -C13     : 108.423424
 H61     -C14     -H60     : 107.425424  C16     -C15     -P1      : 123.478057
 C20     -C15     -P1      : 115.960616  C20     -C15     -C16     : 120.067398
 C17     -C16     -C15     : 118.669378  C21     -C16     -C15     : 127.342358
 C21     -C16     -C17     : 113.908383  C18     -C17     -C16     : 120.165014
 O38     -C17     -C16     : 118.303694  O38     -C17     -C18     : 121.469147
 C19     -C18     -C17     : 120.948175  H62     -C18     -C17     : 120.877407
 H62     -C18     -C19     : 118.169432  C20     -C19     -C18     : 120.570045
 H63     -C19     -C18     : 118.022061  H63     -C19     -C20     : 121.407722
 C19     -C20     -C15     : 119.539652  O36     -C20     -C15     : 119.990907
[...]
    C10      Z     0.00001  -0.00000  -0.00000
    C11      X    -0.00001   0.00000  -0.00002
    C11      Y     0.00000  -0.00000   0.00000
    C11      Z    -0.00000   0.00003  -0.00002
    C12      X    -0.00001   0.00001  -0.00001
    C12      Y     0.00002  -0.00001   0.00002
    C12      Z     0.00000   0.00001  -0.00001
    C13      X     0.00002   0.00001   0.00000
    C13      Y     0.00003  -0.00000   0.00002
    C13      Z     0.00001   0.00002  -0.00001
    C14      X     0.00004  -0.00003   0.00003
    C14      Y    -0.00000   0.00001  -0.00000
    C14      Z     0.00000   0.00002  -0.00001
    C15      X     0.00002   0.00016  -0.00005
    C15      Y     0.00001   0.00028  -0.00008
    C15      Z     0.00002  -0.00025   0.00033
    C16      X     0.00006   0.00016   0.00023
    C16      Y    -0.00005   0.00028   0.00036
    C16      Z    -0.00005  -0.00013   0.00007
    C17      X    -0.00002  -0.00006   0.00004
    C17      Y    -0.00005  -0.00030  -0.00023
    C17      Z     0.00007   0.00195   0.00327
    C18      X     0.00009  -0.02584  -0.02908
    C18      Y     0.00016  -0.04214  -0.04775
    C18      Z     0.00005  -0.02638  -0.02568
    C19      X    -0.00001   0.00727  -0.00537
    C19      Y    -0.00003   0.00617  -0.00302
    C19      Z     0.00001   0.05855  -0.05780
    C20      X     0.00001  -0.00108   0.00157
    C20      Y     0.00002  -0.00175   0.00249
    C20      Z    -0.00001  -0.00033   0.00081
    C21      X    -0.00058  -0.00003  -0.00003
    C21      Y     0.00030  -0.00003  -0.00005
    C21      Z    -0.00025   0.00005   0.00002
    C22      X    -0.00012  -0.00002  -0.00002
    C22      Y     0.00008   0.00000   0.00001
    C22      Z    -0.00022  -0.00002  -0.00002
    C23      X    -0.00525  -0.00006  -0.00007
    C23      Y     0.00242   0.00004   0.00004
    C23      Z     0.00235   0.00004   0.00005
    C24      X    -0.00159   0.00000   0.00000
    C24      Y     0.00072  -0.00000  -0.00000
    C24      Z     0.00250   0.00001   0.00001
    C25      X     0.06269   0.00008   0.00009
    C25      Y    -0.03193  -0.00004  -0.00003
    C25      Z     0.04134   0.00006   0.00005
    C26      X     0.00095   0.00002   0.00002
    C26      Y    -0.00038  -0.00001  -0.00002
    C26      Z    -0.00268  -0.00002  -0.00002
    C27      X     0.00038   0.00000   0.00000
    C27      Y    -0.00038  -0.00003  -0.00001
    C27      Z     0.00101   0.00008   0.00001
    C28      X     0.00086  -0.00002   0.00002
    C28      Y    -0.00016  -0.00001  -0.00002
    C28      Z     0.00175  -0.00001  -0.00002
    C29      X     0.00032   0.00000   0.00002
    C29      Y    -0.00291  -0.00001  -0.00003
    C29      Z     0.00453   0.00002   0.00000
    C30      X    -0.00011  -0.00000  -0.00002
    C30      Y     0.00012  -0.00001  -0.00001
    C30      Z     0.00002  -0.00002  -0.00004
    C31      X    -0.00003  -0.00002  -0.00001
    C31      Y     0.00001  -0.00002  -0.00001
    C31      Z    -0.00003   0.00006   0.00002
    C32      X    -0.00022  -0.00003  -0.00004
    C32      Y    -0.00008  -0.00001  -0.00000
    C32      Z     0.00010   0.00001  -0.00001
    C33      X     0.00303  -0.00001  -0.00001
    C33      Y    -0.00067  -0.00001  -0.00000
    C33      Z    -0.00051  -0.00000   0.00002
    C34      X     0.00065  -0.00000  -0.00001
    C34      Y    -0.00032   0.00000   0.00001
    C34      Z     0.00010   0.00000   0.00001
    C35      X     0.00251   0.00000   0.00000
    C35      Y    -0.00214  -0.00000  -0.00000
    C35      Z    -0.00057   0.00000   0.00002
    O36      X    -0.00001   0.00004  -0.00018
    O36      Y    -0.00002   0.00007  -0.00029
    O36      Z     0.00003   0.00020  -0.00012
    C37      X     0.00005   0.00144  -0.00095
    C37      Y     0.00007   0.00201  -0.00139
    C37      Z    -0.00005   0.00020  -0.00040
    O38      X     0.00002  -0.00008  -0.00003
    O38      Y     0.00004  -0.00014  -0.00002
    O38      Z    -0.00001  -0.00012  -0.00035
    C39      X    -0.00002   0.00017   0.00002
    C39      Y    -0.00015   0.00046   0.00012
    C39      Z     0.00012  -0.00204  -0.00166
    H40      X    -0.00005  -0.00004   0.00004
    H40      Y    -0.00004   0.00054  -0.00011
    H40      Z     0.00008  -0.00073   0.00025
    H41      X    -0.00047  -0.00100   0.00072
    H41      Y    -0.00029  -0.00067   0.00037
    H41      Z    -0.00044  -0.00062   0.00036
    H42      X     0.00007  -0.00016   0.00003
    H42      Y     0.00010   0.00034  -0.00005
    H42      Z    -0.00011  -0.00054   0.00008
    H43      X    -0.00012   0.00009  -0.00020
    H43      Y     0.00032  -0.00018   0.00048
    H43      Z     0.00012  -0.00006   0.00016
    H44      X    -0.00004  -0.00006   0.00004
    H44      Y     0.00006   0.00032  -0.00018
    H44      Z    -0.00011  -0.00044   0.00024
    H45      X    -0.00021   0.00006  -0.00025
    H45      Y    -0.00003  -0.00001  -0.00002
    H45      Z     0.00013  -0.00004   0.00015
    H46      X    -0.00007  -0.00005   0.00002
    H46      Y     0.00021   0.00007  -0.00000
    H46      Z    -0.00027  -0.00012   0.00002
    H47      X    -0.00042   0.00001  -0.00017
    H47      Y    -0.00023  -0.00002  -0.00007
    H47      Z    -0.00029  -0.00004  -0.00009
    H48      X    -0.00001  -0.00001   0.00001
    H48      Y     0.00013   0.00011  -0.00007
    H48      Z    -0.00015  -0.00014   0.00011
    H49      X     0.00006   0.00000   0.00000
    H49      Y    -0.00016  -0.00012   0.00008
    H49      Z    -0.00006  -0.00004   0.00002
    H50      X    -0.00006  -0.00005   0.00002
    H50      Y     0.00013   0.00006  -0.00003
    H50      Z    -0.00015  -0.00009   0.00002
    H51      X     0.00004  -0.00012   0.00006
    H51      Y     0.00001   0.00004   0.00008
    H51      Z     0.00026  -0.00089   0.00063
    H52      X     0.00002   0.00001   0.00000
    H52      Y     0.00003  -0.00000   0.00001
    H52      Z    -0.00001  -0.00011   0.00007
    H53      X    -0.00036   0.00009  -0.00000
    H53      Y    -0.00047   0.00007   0.00008
    H53      Z    -0.00017   0.00004   0.00002
    H54      X     0.00001  -0.00007   0.00004
    H54      Y    -0.00001   0.00001  -0.00001
    H54      Z     0.00007  -0.00034   0.00028
    H55      X     0.00008  -0.00001   0.00023
    H55      Y    -0.00001   0.00001  -0.00004
    H55      Z    -0.00005  -0.00001  -0.00011
    H56      X    -0.00001  -0.00001   0.00000
    H56      Y     0.00000  -0.00002   0.00002
    H56      Z    -0.00011  -0.00012   0.00005
    H57      X     0.00013  -0.00006   0.00013
    H57      Y    -0.00026   0.00011  -0.00025
    H57      Z     0.00009  -0.00003   0.00008
    H58      X     0.00000  -0.00004   0.00003
    H58      Y     0.00001   0.00001  -0.00000
    H58      Z    -0.00002  -0.00029   0.00019
    H59      X    -0.00024   0.00000  -0.00010
    H59      Y    -0.00037   0.00006  -0.00020
    H59      Z    -0.00009  -0.00000  -0.00004
    H60      X    -0.00002  -0.00005   0.00002
    H60      Y    -0.00000  -0.00005   0.00003
    H60      Z    -0.00018  -0.00022   0.00011
    H61      X    -0.00035   0.00031  -0.00019
    H61      Y     0.00002  -0.00002   0.00002
    H61      Z     0.00019  -0.00015   0.00010
    H62      X    -0.00094   0.30742   0.32524
    H62      Y    -0.00157   0.50463   0.53431
    H62      Z    -0.00078   0.28390   0.29557
    H63      X     0.00003  -0.07092   0.06456
    H63      Y     0.00001  -0.04918   0.04276
    H63      Z     0.00016  -0.68845   0.64889
    H64      X     0.05644   0.00087   0.00093
    H64      Y    -0.02602  -0.00039  -0.00042
    H64      Z    -0.03351  -0.00060  -0.00062
    H65      X    -0.72999  -0.00105  -0.00099
    H65      Y     0.36944   0.00054   0.00051
    H65      Z    -0.47965  -0.00075  -0.00069
    H66      X    -0.00238  -0.00006   0.00004
    H66      Y     0.00308   0.00028   0.00002
    H66      Z    -0.00588  -0.00096  -0.00005
    H67      X    -0.00106   0.00003   0.00001
    H67      Y     0.00655   0.00001   0.00003
    H67      Z    -0.01641   0.00008  -0.00002
    H68      X    -0.01019   0.00024   0.00015
    H68      Y    -0.00378   0.00009  -0.00002
    H68      Z    -0.00454   0.00006   0.00001
    H69      X     0.00034  -0.00007  -0.00039
    H69      Y     0.00052   0.00006   0.00023
    H69      Z    -0.00019   0.00004   0.00024
    H70      X    -0.00801  -0.00004  -0.00004
    H70      Y     0.01743   0.00005   0.00007
    H70      Z    -0.05558  -0.00023  -0.00024
    H71      X     0.00543  -0.00002  -0.00028
    H71      Y    -0.00378  -0.00002   0.00012
    H71      Z    -0.00456   0.00001   0.00020
    H72      X     0.00051   0.00001   0.00005
    H72      Y     0.02141   0.00019   0.00023
    H72      Z     0.00094  -0.00000   0.00002
    H73      X     0.00010  -0.00005  -0.00002
    H73      Y     0.00012   0.00002   0.00000
    H73      Z    -0.00036   0.00019   0.00011
    H74      X     0.00091   0.00019   0.00056
    H74      Y    -0.00036  -0.00006  -0.00024
    H74      Z     0.00062   0.00010   0.00030
    H75      X     0.00044  -0.00003  -0.00023
    H75      Y    -0.00117   0.00014   0.00031
    H75      Z    -0.00059  -0.00003   0.00008
    H76      X    -0.00003   0.00021   0.00004
    H76      Y    -0.00017   0.00017   0.00010
    H76      Z     0.00102  -0.00072  -0.00019
    H77      X     0.00097   0.00009   0.00009
    H77      Y     0.00057   0.00002   0.00002
    H77      Z    -0.00240  -0.00022  -0.00021
    H78      X     0.00048   0.00006   0.00029
    H78      Y    -0.00040  -0.00006  -0.00020
    H78      Z     0.00050   0.00006   0.00026
    H79      X     0.00108   0.00025   0.00022
    H79      Y     0.00101   0.00027   0.00023
    H79      Z     0.00029   0.00006   0.00006
    H80      X    -0.02779  -0.00002   0.00002
    H80      Y     0.01539   0.00001  -0.00001
    H80      Z     0.00755   0.00001   0.00001
    H81      X    -0.00982   0.00010   0.00004
    H81      Y    -0.00717   0.00007   0.00002
    H81      Z    -0.00512   0.00005   0.00004
    H82      X    -0.00014   0.00000   0.00002
    H82      Y     0.00081   0.00002   0.00002
    H82      Z     0.00359  -0.00003  -0.00028
    H83      X    -0.00220   0.00006   0.00012
    H83      Y     0.00115  -0.00003  -0.00006
    H83      Z    -0.00191  -0.00003  -0.00006
    H84      X    -0.03100  -0.00003   0.00002
    H84      Y     0.01388   0.00002  -0.00001
    H84      Z     0.00794   0.00001   0.00002
    H85      X     0.00008   0.00000   0.00000
    H85      Y     0.01301   0.00004   0.00009
    H85      Z    -0.00500  -0.00001  -0.00001
    H86      X    -0.00084  -0.00000   0.00001
    H86      Y    -0.00051  -0.00001  -0.00002
    H86      Z     0.00396  -0.00007  -0.00031
    H87      X    -0.00060  -0.01176   0.00739
    H87      Y    -0.00090  -0.01800   0.01143
    H87      Z     0.00038   0.00541  -0.00294
    H88      X    -0.00001  -0.01479   0.01215
    H88      Y     0.00004  -0.00013   0.00053
    H88      Z     0.00001  -0.00468   0.00381
    H89      X     0.00001   0.00584  -0.00471
    H89      Y     0.00007  -0.01117   0.00978
    H89      Z     0.00003  -0.00259   0.00226
    H90      X     0.00055  -0.00372  -0.00242
    H90      Y     0.00119  -0.00915  -0.00606
    H90      Z    -0.00167   0.01555   0.01117
    H91      X    -0.00018   0.00959   0.00889
    H91      Y     0.00012  -0.00399  -0.00378
    H91      Z    -0.00006   0.00616   0.00618
    H92      X    -0.00022  -0.00861  -0.00802
    H92      Y     0.00023   0.00565   0.00519
    H92      Z     0.00034   0.00784   0.00775
  
  Number of imaginary frequencies:   0
   
  Writing vibrational animation data to PL344.vib
  Writing IR vibrational spectrum data to PL344_vib.spm
  rotational symmetry number:  1

  rotational temperatures (K):      0.005329      0.003690      0.003533
   
  The Quasi-Harmonic approximation will be applied to compute
  vibrational constributions to thermodynamic properties.
  Frequencies will be adjusted to a minimum value of  100.00 cm^-1.

  vibrational temperatures:
       mode:      1        2        3        4        5        6
  temp. (K):   143.88   143.88   143.88   143.88   143.88   143.88
   
       mode:      7        8        9       10       11       12
  temp. (K):   143.88   143.88   143.88   143.88   143.88   143.88
   
       mode:     13       14       15       16       17       18
  temp. (K):   143.88   143.88   153.53   162.37   184.26   193.30
   
       mode:     19       20       21       22       23       24
  temp. (K):   195.56   208.13   226.64   236.63   249.82   269.26
   
       mode:     25       26       27       28       29       30
  temp. (K):   281.54   289.00   312.77   322.18   343.32   352.45
   
       mode:     31       32       33       34       35       36
  temp. (K):   366.65   374.08   384.53   390.15   390.93   399.78
   
       mode:     37       38       39       40       41       42
  temp. (K):   402.43   408.54   408.91   421.98   434.45   447.83
   
       mode:     43       44       45       46       47       48
  temp. (K):   466.23   473.19   477.92   482.50   503.83   538.94
   
       mode:     49       50       51       52       53       54
  temp. (K):   541.99   546.45   558.75   588.56   605.62   621.51
   
       mode:     55       56       57       58       59       60
  temp. (K):   640.53   642.95   653.00   656.85   666.81   686.28
   
       mode:     61       62       63       64       65       66
  temp. (K):   703.71   734.31   749.85   755.49   806.01   816.11
   
       mode:     67       68       69       70       71       72
  temp. (K):   854.86   896.34   908.25   914.92   937.21   966.75
   
       mode:     73       74       75       76       77       78
  temp. (K):   969.33  1042.13  1071.42  1089.37  1128.39  1144.25
   
       mode:     79       80       81       82       83       84
  temp. (K):  1161.93  1167.77  1181.21  1184.94  1204.16  1214.22
   
       mode:     85       86       87       88       89       90
  temp. (K):  1218.04  1245.35  1258.68  1263.57  1303.88  1309.84
   
       mode:     91       92       93       94       95       96
  temp. (K):  1312.49  1313.61  1317.04  1320.88  1322.39  1326.62
   
       mode:     97       98       99      100      101      102
  temp. (K):  1334.28  1359.59  1364.52  1367.41  1369.42  1371.55
   
       mode:    103      104      105      106      107      108
  temp. (K):  1395.51  1406.79  1411.59  1414.64  1418.03  1475.44
   
       mode:    109      110      111      112      113      114
  temp. (K):  1484.77  1522.38  1526.07  1530.92  1548.02  1556.40
   
       mode:    115      116      117      118      119      120
  temp. (K):  1575.09  1576.64  1592.35  1596.16  1601.79  1604.38
   
       mode:    121      122      123      124      125      126
  temp. (K):  1617.25  1628.53  1633.77  1643.07  1644.49  1648.01
   
       mode:    127      128      129      130      131      132
  temp. (K):  1655.94  1657.69  1682.67  1701.84  1704.09  1717.41
   
       mode:    133      134      135      136      137      138
  temp. (K):  1722.03  1745.62  1746.90  1748.56  1753.93  1755.80
   
       mode:    139      140      141      142      143      144
  temp. (K):  1762.63  1770.13  1787.20  1817.55  1861.80  1872.52
   
       mode:    145      146      147      148      149      150
  temp. (K):  1874.62  1876.49  1877.98  1883.68  1889.48  1893.99
   
       mode:    151      152      153      154      155      156
  temp. (K):  1894.27  1901.64  1912.97  1932.89  1937.57  1946.75
   
       mode:    157      158      159      160      161      162
  temp. (K):  1954.49  1962.35  1965.59  1967.28  1975.40  1979.49
   
       mode:    163      164      165      166      167      168
  temp. (K):  1996.19  1999.72  2007.79  2009.22  2012.68  2016.62
   
       mode:    169      170      171      172      173      174
  temp. (K):  2019.28  2021.91  2022.53  2028.10  2044.62  2045.39
   
       mode:    175      176      177      178      179      180
  temp. (K):  2050.77  2072.23  2074.52  2078.77  2084.47  2125.70
   
       mode:    181      182      183      184      185      186
  temp. (K):  2139.19  2157.43  2160.69  2164.59  2169.62  2171.83
   
       mode:    187      188      189      190      191      192
  temp. (K):  2174.54  2175.75  2177.16  2177.99  2178.30  2179.46
   
       mode:    193      194      195      196      197      198
  temp. (K):  2181.84  2184.47  2185.96  2186.81  2187.59  2188.87
   
       mode:    199      200      201      202      203      204
  temp. (K):  2190.76  2195.36  2201.08  2202.43  2202.89  2204.24
   
       mode:    205      206      207      208      209      210
  temp. (K):  2205.80  2207.66  2209.54  2215.18  2217.94  2222.22
   
       mode:    211      212      213      214      215      216
  temp. (K):  2353.13  2359.60  2368.58  2414.84  4340.24  4344.84
   
       mode:    217      218      219      220      221      222
  temp. (K):  4354.60  4355.79  4359.27  4360.78  4365.75  4366.69
   
       mode:    223      224      225      226      227      228
  temp. (K):  4367.00  4372.02  4373.57  4375.50  4378.22  4380.50
   
       mode:    229      230      231      232      233      234
  temp. (K):  4380.67  4383.10  4384.79  4391.63  4392.48  4411.50
   
       mode:    235      236      237      238      239      240
  temp. (K):  4427.11  4430.77  4432.01  4434.76  4436.17  4440.55
   
       mode:    241      242      243      244      245      246
  temp. (K):  4441.74  4442.17  4443.16  4443.56  4450.48  4467.90
   
       mode:    247      248      249      250      251      252
  temp. (K):  4474.67  4475.19  4476.80  4479.49  4487.03  4487.60
   
       mode:    253      254      255      256      257      258
  temp. (K):  4488.87  4490.73  4502.01  4505.90  4510.86  4516.43
   
       mode:    259      260      261      262      263      264
  temp. (K):  4519.19  4540.88  4543.72  4543.99  4563.90  4576.90
   
       mode:    265      266      267
  temp. (K):  4583.58  4627.30  4649.65
   
   
  Thermodynamic properties calculated assuming an ideal gas

  In the table below, the units for temperature
  are kelvins, the units for U, H, and G are
  kcal/mol and the units for Cv and S are cal/(mol K)

  The zero point energy (ZPE):    515.879 kcal/mol
  is not included in U, H, or G in the table below
  
 
  =============================================================================
  Thermodynamic properties for P = 1.00E+00 atm, calculated at   1 temperatures


  T =   298.15 K, P = 1.00E+00 atm
   
                  U         Cv          S          H          G        ln(Q)
              =========  =========  =========  =========  =========  =========
  trans.          0.889      2.981     44.725      1.481    -11.853   20.00638
  rot.            0.889      2.981     37.479      0.889    -10.286   17.35998
  vib.           22.857    151.238    138.538     22.857    -18.448   31.13645
  elec.           0.000      0.000      0.000      0.000      0.000    0.00000
  ----------------------------------------------------------------------------
  total          24.635    157.200    220.741     25.227    -40.587   68.50282
   
   Total internal energy, Utot(SCFE + ZPE + U):   -1856.125060 hartrees
   Total enthalpy, Htot (Utot + nRT), with n=1:   -1856.124116 hartrees
    Total Gibbs free energy, Gtot (Htot - T*S):   -1856.228997 hartrees
   
  end of program freq
   
 Time(freq)  user:       0.413  user+sys:       0.413  wallclock:       0.488
  
  start of program post
  
  Writing input files for PBF
  end of program post
   
 Time(post)  user:       0.177  user+sys:       0.177  wallclock:       0.119

 Total cpu seconds     user:   52516.299   user+sys:   52516.299
  
 Total elapsed time:    28834 seconds

Job PL344 completed on bp1-compute084.data.bp.acrc.priv at Thu Mar 27 18:37:05 2025
