Job red_elim_N_trans_L1_PL344 started on bp1-compute055.data.bp.acrc.priv at Thu Apr  3 15:50:16 2025
jobid: bp1-compute055-0-67eea020

  +--------------------------------------------------------------------+
  |  Jaguar version 12.5, release 138                                  |
  |                                                                    |
  |  Copyright Schrodinger, Inc.                                       |
  |  All Rights Reserved.                                              |
  |                                                                    |
  |  The following have contributed to Jaguar (listed alphabetically): |
  |  Ty Balduf, Mike Beachy, Chandler Bennett, Art Bochevarov,         |
  |  Dale Braden, Yixiang Cao, Alan Chien, Chris Cortis,               |
  |  Rich Friesner, Jim Furness, Bill Goddard, Hod Greeley,            |
  |  Tom Hughes, Leif Jacobson, Jean-Marc Langlois, Daniel Levine,     |
  |  Rob Murphy, Dean Philipp, Tom Pollard, Murco Ringnalda,           |
  |  Daniel Mainz, Pablo Videla, Mark Watson, Haoyu Yu.                |
  |                                                                    |
  |  Use of this program should be acknowledged in publications as:    |
  |                                                                    |
  |  Jaguar, version 12.5, Schrodinger, Inc., New York, NY, 2024.      |
  |                                                                    |
  |  A. D. Bochevarov, E. Harder, T. F. Hughes, J. R. Greenwood,       |
  |  D. A. Braden, D. M. Philipp, D. Rinaldo, M. D. Halls,             |
  |  J. Zhang, R. A. Friesner, "Jaguar: A High-Performance Quantum     |
  |  Chemistry Software Program with Strengths in Life and Materials   |
  |  Sciences", Int. J. Quantum Chem., 2013, 113(18), 2110-2142.       |
  +--------------------------------------------------------------------+
  
  start of program pre
  
  Job name: red_elim_N_trans_L1_PL344
  Executables used: /software/local/apps/schrodinger2024-3/jaguar-v12.5/bin/Linux-x86_64
  Temporary files : /tmp/ar21627/red_elim_N_trans_L1_PL344#bp1-compute055-0-67eea020
  Basis file : using default basis file from /software/local/apps/schrodinger2024-3
  Maestro file (input):  red_elim_N_trans_L1_PL344.mae
  Maestro file (output): red_elim_N_trans_L1_PL344.01.mae
  
 Contents of input file: &gen and (if present) &atomic sections only
 ----------------Contents start----------------
&gen
dftname=b3pw91-d3
basis=6-31G*
numd=5
ip11=2
iaccg=3
isolv=2
igeopt=1
solvent=benzene
ifreq=1
&
&atomic
atom basis
Pd2 lacv3p*
&
 -----------------Contents end-----------------
 
  PS calculation requested. Using PS version of 6-31g*
  basis set:               non_standard                    
  net molecular charge:    0
  multiplicity:            1
  
  Using up to   4 threads per process
  
  This run will use ECP on 1 atom
  number of basis functions....          889
  
 Input geometry:
                                   angstroms
  atom               x                 y                 z
  P1            0.0000000000      0.0000000000      0.0000000000 
  Pd2           0.0000000000      0.0000000000      2.3923182082 
  N2            1.1028358190      1.6982182385      2.1745882742 
  C16           0.1205692736      0.1848007347      7.2562187795 
  C17          -0.8891911160      0.8317201996      6.5347188772 
  C18          -0.9006584041      0.8163306024      5.1371944723 
  C19           0.0877592811      0.1416445953      4.4021695345 
  C20           1.1043765771     -0.4937047977      5.1348464771 
  C21           1.1187015089     -0.4767759482      6.5306472385 
  F10           0.1266400159      0.1813138866      8.5892003953 
  H23          -1.6729262068      1.3648718104      7.0741070950 
  H24          -1.6924624526      1.3538856501      4.6153218170 
  H25           1.9137525543     -1.0015031964      4.6104898253 
  H26           1.9224522077     -0.9813628482      7.0679212173 
  H18           0.4910448842      2.5956336083      2.0003542185 
  C22           3.7977171859      2.3384154377      5.4205510973 
  C23           4.2123618582      1.6028051949      4.2981422519 
  C24           3.3253607578      1.3920888245      3.2297565963 
  C25           2.0237149851      1.9169826970      3.2837797861 
  C26           1.6090071586      2.6525779369      4.4061125628 
  C27           2.4960714132      2.8633093102      5.4745742872 
  H22           4.4945609126      2.5039579390      6.2598937335 
  H27           5.2350278604      1.1904733147      4.2558188718 
  H28           3.6511198855      0.8141994571      2.3480145026 
  H29           0.5864748611      3.0648730078      4.4484636576 
  H30           2.1703122919      3.4411986946      6.3563163721 
  C3            1.7300610000      0.0000000000     -0.6757070000 
  C4            2.3683310000     -1.3786470000     -0.9527850000 
  C5            3.6839660000     -1.2353690000     -1.7327820000 
  C6            4.6878420000     -0.3819010000     -0.9461730000 
  C7            4.0786400000      0.9798580000     -0.5868500000 
  C8            2.7482580000      0.8044910000      0.1612460000 
  C9           -0.8180240000      1.4096690000     -0.6917300000 
  C10          -2.2927740000      1.4539250000     -0.2588000000 
  C11          -3.0649390000      2.6131910000     -0.9019730000 
  C12          -2.3959200000      3.9537300000     -0.5771470000 
  C13          -0.9361930000      3.9384250000     -1.0456500000 
  C14          -0.1619940000      2.7737060000     -0.4106920000 
  C15          -0.9407660000     -1.3859480000     -0.6815250000 
  C40          -1.6738125872     -2.3161384009      0.1141116587 
  C41          -2.5134174674     -3.2605751516     -0.5240955105 
  C42          -2.6173510128     -3.2340257141     -1.9234076241 
  C43          -1.9183950075     -2.3015299328     -2.6901990567 
  C44          -1.0735400134     -1.3571029430     -2.0903289547 
  C45          -1.6173562052     -2.3803924065      1.5383804198 
  C46          -2.7097877312     -1.9094792274      2.3328230168 
  C47          -2.6332593259     -1.9776224076      3.7367162723 
  C48          -1.5323793991     -2.4998835426      4.4215486242 
  C49          -0.4834933927     -2.9751426397      3.6298823587 
  C50          -0.4959410722     -2.9302975633      2.2233286354 
  C51           0.6597165394     -3.6503670691      1.5432455634 
  C28           0.4111849899     -5.1687471161      1.6369697773 
  C29           2.0520753415     -3.3232316462      2.1205782138 
  C30          -5.2764701539     -1.8544202661      2.2728574508 
  C31          -3.9580805555     -1.2021048488      1.8051498680 
  C32          -3.9793205492      0.2780220728      2.2452926512 
  C33          -2.8713367522     -2.9016005276      6.5125570206 
  C34          -1.4885595395     -2.5593439017      5.9346712514 
  C35          -0.4191392897     -3.5522643282      6.4184621230 
  O36          -0.4225270217     -0.4247376911     -2.8440797967 
  C37          -0.3948513675     -0.3896798114     -4.2552232135 
  O38          -3.1425212944     -4.2311405531      0.2038031613 
  C39          -3.8201344277     -5.3387864864     -0.3554691446 
  H40           1.6344330000      0.5420470000     -1.6433500000 
  H41           1.6814530000     -2.0423920000     -1.5239010000 
  H42           2.5802080000     -1.9043560000      0.0047220000 
  H43           4.1212220000     -2.2431430000     -1.9335920000 
  H44           3.4816040000     -0.7640100000     -2.7240900000 
  H45           5.6210130000     -0.2397150000     -1.5425970000 
  H46           4.9748910000     -0.9171950000     -0.0096740000 
  H47           4.7964410000      1.5609340000      0.0409890000 
  H48           3.9073530000      1.5709840000     -1.5179420000 
  H49           2.3481220000      1.8072140000      0.4333270000 
  H50           2.9401670000      0.2834650000      1.1268150000 
  H51          -0.7997930000      1.2640200000     -1.7961970000 
  H52          -2.3371980000      1.5493870000      0.8518520000 
  H53          -2.7961720000      0.4982840000     -0.5365800000 
  H54          -3.1011620000      2.4693480000     -2.0082010000 
  H55          -4.1204230000      2.6175750000     -0.5372480000 
  H56          -2.4356110000      4.1371990000      0.5230460000 
  H57          -2.9491600000      4.7878510000     -1.0721710000 
  H58          -0.9047120000      3.8440790000     -2.1575050000 
  H59          -0.4455580000      4.9074950000     -0.7861250000 
  H60          -0.0908130000      2.9280340000      0.6918250000 
  H61           0.8719580000      2.7918690000     -0.8252090000 
  H62          -3.2516120760     -3.9563310413     -2.4611165482 
  H63          -2.0569832094     -2.3305787981     -3.7826179339 
  H64          -3.4628719227     -1.5951733762      4.3492819409 
  H65           0.3683605404     -3.4233840986      4.1587189205 
  H66           0.6619608496     -3.4545333448      0.4518470850 
  H67           0.3973772249     -5.5217594052      2.6934197610 
  H68          -0.5673128590     -5.4437891920      1.1783759355 
  H69           1.2040407121     -5.7424013396      1.1030713023 
  H70           2.2199262441     -3.7634442479      3.1283586141 
  H71           2.8607204490     -3.7399521189      1.4784284700 
  H72           2.2093754295     -2.2252668878      2.2097788247 
  H73          -5.4892537843     -1.6636343975      3.3485871750 
  H74          -6.1439797118     -1.4553315805      1.6981876388 
  H75          -5.2674518551     -2.9584909057      2.1496987963 
  H76          -3.9553691014     -1.1528827153      0.6935616443 
  H77          -4.0937450956      0.3976544812      3.3461014525 
  H78          -4.8233131173      0.8289149816      1.7689715750 
  H79          -3.0408642423      0.8011361576      1.9625162942 
  H80          -3.2094356802     -3.9177507851      6.2072773552 
  H81          -3.6378171984     -2.1696668554      6.1675548954 
  H82          -2.8578809157     -2.8760732233      7.6266134985 
  H83          -1.2054616947     -1.5530749264      6.3291981385 
  H84          -0.6528146863     -4.5973698229      6.1132223670 
  H85           0.5814959316     -3.2914121378      6.0025668430 
  H86          -0.3357291687     -3.5415910091      7.5297212074 
  H87           0.2662325470      0.4570177668     -4.5473824852 
  H88          -1.4248372171     -0.2050876112     -4.6362133438 
  H89           0.0354341860     -1.3447297159     -4.6338480700 
  H90          -4.1280411365     -6.0032803575      0.4824275867 
  H91          -4.7246548741     -4.9759584177     -0.8946163398 
  H92          -3.1227742304     -5.8966496108     -1.0211133810 
   
  principal moments of inertia:
        amu*angstrom^2:              7848.31272              9769.91356             12234.00073
                g*cm^2:          1.30324283E-36          1.62233211E-36          2.03150336E-36
   
  rotational constants:
               cm^(-1):      0.00214793      0.00172546      0.00137793
                   GHz:      0.06439333      0.05172809      0.04130938
   
  Molecular weight:     829.36 amu
   
  Stoichiometry: PdC47PNH63O2F
  Molecular Point Group: C1      
  Point Group used: C1
  
 
Number of optimization coordinates:   390
Number of independent coordinates:    390
Number of non-redundant coordinates:  342
Number of frozen coordinates:           0
Number of harmonic constraints:         0
 
Number of geometric degrees of freedom:   342
Maximum geometric degrees of freedom:     342
 " " " " " excluding dummy atoms:         342
 
 
  bond lengths (angstroms):
 
 P1      -Pd2     :   2.392318      P1      -C3      :   1.857334
 P1      -C9      :   1.770542      P1      -C15     :   1.808416
 Pd2     -N2      :   2.036565      Pd2     -C19     :   2.016747
 N2      -H18     :   1.100000      N2      -C25     :   1.458143
 C16     -C17     :   1.399530      C16     -C21     :   1.400145
 C16     -F10     :   1.333000      C17     -C18     :   1.397656
 C17     -H23     :   1.090610      C18     -C19     :   1.404433
 C18     -H24     :   1.090078      C19     -C20     :   1.404989
 C20     -C21     :   1.395977      C20     -H25     :   1.089908
 C21     -H26     :   1.090544      C22     -C23     :   1.404583
 C22     -C27     :   1.404533      C22     -H22     :   1.103400
 C23     -C24     :   1.404500      C23     -H27     :   1.103474
 C24     -C25     :   1.404533      C24     -H28     :   1.103424
 C25     -C26     :   1.404533      C26     -C27     :   1.404600
 C26     -H29     :   1.103337      C27     -H30     :   1.103424
 C3      -C4      :   1.544289      C3      -C8      :   1.544157
 C3      -H40     :   1.113235      C4      -C5      :   1.536170
 C4      -H41     :   1.112894      C4      -H42     :   1.112691
 C5      -C6      :   1.534578      C5      -H43     :   1.116748
 C5      -H44     :   1.116164      C6      -C7      :   1.534480
 C6      -H45     :   1.116578      C6      -H46     :   1.116229
 C7      -C8      :   1.536332      C7      -H47     :   1.116723
 C7      -H48     :   1.116110      C8      -H49     :   1.113369
 C8      -H50     :   1.113832      C9      -C10     :   1.537620
 C9      -C14     :   1.539466      C9      -H51     :   1.114178
 C10     -C11     :   1.534212      C10     -H52     :   1.115632
 C10     -H53     :   1.115267      C11     -C12     :   1.533018
 C11     -H54     :   1.116129      C11     -H55     :   1.116732
 C12     -C13     :   1.533145      C12     -H56     :   1.116092
 C12     -H57     :   1.116638      C13     -C14     :   1.535945
 C13     -H58     :   1.116295      C13     -H59     :   1.116769
 C14     -H60     :   1.115539      C14     -H61     :   1.114096
 C15     -C40     :   1.426762      C15     -C44     :   1.415341
 C40     -C41     :   1.415700      C40     -C45     :   1.426835
 C41     -C42     :   1.403418      C41     -O38     :   1.366604
 C42     -C43     :   1.395011      C42     -H62     :   1.101428
 C43     -C44     :   1.401987      C43     -H63     :   1.101558
 C44     -O36     :   1.364281      C45     -C46     :   1.430491
 C45     -C50     :   1.424472      C46     -C47     :   1.407628
 C46     -C31     :   1.528742      C47     -C48     :   1.397744
 C47     -H64     :   1.099891      C48     -C49     :   1.397415
 C48     -C34     :   1.514924      C49     -C50     :   1.407323
 C49     -H65     :   1.098291      C50     -C51     :   1.522024
 C51     -C28     :   1.541438      C51     -C29     :   1.542399
 C51     -H66     :   1.108831      C28     -H67     :   1.113955
 C28     -H68     :   1.115085      C28     -H69     :   1.114786
 C29     -H70     :   1.112467      C29     -H71     :   1.113517
 C29     -H72     :   1.112756      C30     -C31     :   1.543508
 C30     -H73     :   1.113046      C30     -H74     :   1.114491
 C30     -H75     :   1.110955      C31     -C32     :   1.544329
 C31     -H76     :   1.112681      C32     -H77     :   1.113187
 C32     -H78     :   1.114759      C32     -H79     :   1.110996
 C33     -C34     :   1.537259      C33     -H80     :   1.113583
 C33     -H81     :   1.114561      C33     -H82     :   1.114430
 C34     -C35     :   1.537402      C34     -H83     :   1.117306
 C35     -H84     :   1.113562      C35     -H85     :   1.114578
 C35     -H86     :   1.114436      O36     -C37     :   1.411850
 C37     -H87     :   1.113232      C37     -H88     :   1.113597
 C37     -H89     :   1.113832      O38     -C39     :   1.413798
 C39     -H90     :   1.112848      C39     -H91     :   1.113769
 C39     -H92     :   1.113824
 
  bond angles:
 
 C3      -P1      -Pd2     : 111.334041  C9      -P1      -Pd2     : 112.997327
 C9      -P1      -C3      : 106.751716  C15     -P1      -Pd2     : 112.139500
 C15     -P1      -C3      : 110.332238  C15     -P1      -C9      : 102.861598
 N2      -Pd2     -P1      :  83.862758  C19     -Pd2     -P1      : 175.260696
 C19     -Pd2     -N2      :  91.399003  H18     -N2      -Pd2     : 113.331428
 C25     -N2      -Pd2     : 112.691549  C25     -N2      -H18     : 110.446772
 C21     -C16     -C17     : 117.748983  F10     -C16     -C17     : 121.333471
 F10     -C16     -C21     : 120.912073  C18     -C17     -C16     : 121.085167
 H23     -C17     -C16     : 119.306782  H23     -C17     -C18     : 119.604803
 C19     -C18     -C17     : 121.522045  H24     -C18     -C17     : 118.635292
 H24     -C18     -C19     : 119.838237  C18     -C19     -Pd2     : 121.647118
 C20     -C19     -Pd2     : 121.293709  C20     -C19     -C18     : 116.972232
 C21     -C20     -C19     : 121.557740  H25     -C20     -C19     : 119.810802
 H25     -C20     -C21     : 118.624739  C20     -C21     -C16     : 121.101860
 H26     -C21     -C16     : 119.256721  H26     -C21     -C20     : 119.640461
 C27     -C22     -C23     : 120.002746  H22     -C22     -C23     : 120.000393
 H22     -C22     -C27     : 119.996860  C24     -C23     -C22     : 120.000393
 H27     -C23     -C22     : 119.995826  H27     -C23     -C24     : 120.003781
 C25     -C24     -C23     : 119.996860  H28     -C24     -C23     : 119.999284
 H28     -C24     -C25     : 120.003855  C24     -C25     -N2      : 119.996860
 C26     -C25     -N2      : 119.996860  C26     -C25     -C24     : 120.006279
 C27     -C26     -C25     : 119.996860  H29     -C26     -C25     : 120.001259
 H29     -C26     -C27     : 120.001881  C26     -C27     -C22     : 119.996860
 H30     -C27     -C22     : 120.003855  H30     -C27     -C26     : 119.999284
 C4      -C3      -P1      : 116.760510  C8      -C3      -P1      : 114.646323
 C8      -C3      -C4      : 106.847527  H40     -C3      -P1      : 103.662995
 H40     -C3      -C4      : 108.314501  H40     -C3      -C8      : 105.907946
 C5      -C4      -C3      : 111.211448  H41     -C4      -C3      : 111.679997
 H41     -C4      -C5      : 108.883871  H42     -C4      -C3      : 110.248545
 H42     -C4      -C5      : 108.537431  H42     -C4      -H41     : 106.102112
 C6      -C5      -C4      : 110.601118  H43     -C5      -C4      : 110.027297
 H43     -C5      -C6      : 109.750386  H44     -C5      -C4      : 109.576838
 H44     -C5      -C6      : 109.815095  H44     -C5      -H43     : 107.000444
 C7      -C6      -C5      : 110.724618  H45     -C6      -C5      : 110.104777
 H45     -C6      -C7      : 110.112838  H46     -C6      -C5      : 109.364249
 H46     -C6      -C7      : 109.342233  H46     -C6      -H45     : 107.115239
 C8      -C7      -C6      : 110.886276  H47     -C7      -C6      : 109.769420
 H47     -C7      -C8      : 110.013431  H48     -C7      -C6      : 109.608747
 H48     -C7      -C8      : 109.498195  H48     -C7      -H47     : 106.982164
 C7      -C8      -C3      : 111.502229  H49     -C8      -C3      : 111.388588
 H49     -C8      -C7      : 109.111490  H50     -C8      -C3      : 109.862699
 H50     -C8      -C7      : 109.045316  H50     -C8      -H49     : 105.745522
 C10     -C9      -P1      : 110.857327  C14     -C9      -P1      : 115.928139
 C14     -C9      -C10     : 109.378978  H51     -C9      -P1      : 106.000389
 H51     -C9      -C10     : 107.371173  H51     -C9      -C14     : 106.847078
 C11     -C10     -C9      : 112.732647  H52     -C10     -C9      : 108.720752
 H52     -C10     -C11     : 109.429831  H53     -C10     -C9      : 109.762611
 H53     -C10     -C11     : 108.413472  H53     -C10     -H52     : 107.656261
 C12     -C11     -C10     : 110.626189  H54     -C11     -C10     : 109.539408
 H54     -C11     -C12     : 109.686039  H55     -C11     -C10     : 109.983071
 H55     -C11     -C12     : 109.866913  H55     -C11     -H54     : 107.069708
 C13     -C12     -C11     : 110.000606  H56     -C12     -C11     : 109.699947
 H56     -C12     -C13     : 109.677805  H57     -C12     -C11     : 110.062984
 H57     -C12     -C13     : 110.103242  H57     -C12     -H56     : 107.252736
 C14     -C13     -C12     : 111.171369  H58     -C13     -C12     : 109.393996
 H58     -C13     -C14     : 109.478303  H59     -C13     -C12     : 109.792782
 H59     -C13     -C14     : 109.907327  H59     -C13     -H58     : 107.002557
 C13     -C14     -C9      : 112.434621  H60     -C14     -C9      : 109.280610
 H60     -C14     -C13     : 109.622954  H61     -C14     -C9      : 109.999296
 H61     -C14     -C13     : 107.554917  H61     -C14     -H60     : 107.833293
 C40     -C15     -P1      : 123.832937  C44     -C15     -P1      : 114.098396
 C44     -C15     -C40     : 121.343339  C41     -C40     -C15     : 119.225455
 C45     -C40     -C15     : 124.449485  C45     -C40     -C41     : 116.322323
 C42     -C41     -C40     : 118.736932  O38     -C41     -C40     : 120.443358
 O38     -C41     -C42     : 120.691735  C43     -C42     -C41     : 121.573946
 H62     -C42     -C41     : 121.131545  H62     -C42     -C43     : 117.293272
 C44     -C43     -C42     : 121.133741  H63     -C43     -C42     : 117.674159
 H63     -C43     -C44     : 121.191582  C43     -C44     -C15     : 117.949811
 O36     -C44     -C15     : 121.271958  O36     -C44     -C43     : 120.765950
 C46     -C45     -C40     : 120.618772  C50     -C45     -C40     : 121.905017
 C50     -C45     -C46     : 117.467414  C47     -C46     -C45     : 119.764417
 C31     -C46     -C45     : 125.747183  C31     -C46     -C47     : 114.270544
 C48     -C47     -C46     : 123.337088  H64     -C47     -C46     : 119.842345
 H64     -C47     -C48     : 116.815584  C49     -C48     -C47     : 116.147259
 C34     -C48     -C47     : 121.790863  C34     -C48     -C49     : 122.058730
 C50     -C49     -C48     : 123.280324  H65     -C49     -C48     : 116.627553
 H65     -C49     -C50     : 120.073501  C49     -C50     -C45     : 119.989746
 C51     -C50     -C45     : 124.439266  C51     -C50     -C49     : 115.137511
 C28     -C51     -C50     : 108.447251  C29     -C51     -C50     : 114.697965
 C29     -C51     -C28     : 109.372768  H66     -C51     -C50     : 110.964197
 H66     -C51     -C28     : 103.541195  H66     -C51     -C29     : 109.216446
 H67     -C28     -C51     : 111.828064  H68     -C28     -C51     : 111.066057
 H68     -C28     -H67     : 107.517143  H69     -C28     -C51     : 111.290528
 H69     -C28     -H67     : 107.454287  H69     -C28     -H68     : 107.470254
 H70     -C29     -C51     : 113.039231  H71     -C29     -C51     : 111.120614
 H71     -C29     -H70     : 105.352549  H72     -C29     -C51     : 111.523991
 H72     -C29     -H70     : 107.247586  H72     -C29     -H71     : 108.230131
 H73     -C30     -C31     : 112.563474  H74     -C30     -C31     : 110.933396
 H74     -C30     -H73     : 106.747858  H75     -C30     -C31     : 112.301123
 H75     -C30     -H73     : 106.202930  H75     -C30     -H74     : 107.759837
 C30     -C31     -C46     : 113.410265  C32     -C31     -C46     : 110.875326
 C32     -C31     -C30     : 107.874938  H76     -C31     -C46     : 111.303542
 H76     -C31     -C30     : 108.874448  H76     -C31     -C32     : 104.025938
 H77     -C32     -C31     : 112.721430  H78     -C32     -C31     : 111.239696
 H78     -C32     -H77     : 106.953943  H79     -C32     -C31     : 111.538001
 H79     -C32     -H77     : 106.733468  H79     -C32     -H78     : 107.342713
 H80     -C33     -C34     : 111.913632  H81     -C33     -C34     : 110.855877
 H81     -C33     -H80     : 107.793726  H82     -C33     -C34     : 111.089936
 H82     -C33     -H80     : 107.374596  H82     -C33     -H81     : 107.619723
 C33     -C34     -C48     : 110.989231  C35     -C34     -C48     : 111.086461
 C35     -C34     -C33     : 111.322334  H83     -C34     -C48     : 108.945303
 H83     -C34     -C33     : 107.198855  H83     -C34     -C35     : 107.115307
 H84     -C35     -C34     : 111.957177  H85     -C35     -C34     : 110.849828
 H85     -C35     -H84     : 107.803871  H86     -C35     -C34     : 111.079362
 H86     -C35     -H84     : 107.338962  H86     -C35     -H85     : 107.616392
 C37     -O36     -C44     : 125.347685  H87     -C37     -O36     : 107.027922
 H88     -C37     -O36     : 109.143780  H88     -C37     -H87     : 109.474790
 H89     -C37     -O36     : 109.028651  H89     -C37     -H87     : 109.483317
 H89     -C37     -H88     : 112.528252  C39     -O38     -C41     : 124.495828
 H90     -C39     -O38     : 107.612303  H91     -C39     -O38     : 108.996383
 H91     -C39     -H90     : 109.529437  H92     -C39     -O38     : 109.191410
 H92     -C39     -H90     : 108.912965  H92     -C39     -H91     : 112.478480
 
  torsional angles:
 
 P1      -Pd2     -N2      -H18     :  82.697021
 P1      -Pd2     -N2      -C25     :-150.953049
 P1      -Pd2     -C19     -C18     :  90.381529
 P1      -Pd2     -C19     -C20     : -93.112019
 P1      -C3      -C4      -C5      : 169.923669
 P1      -C3      -C4      -H41     :  48.060819
 P1      -C3      -C4      -H42     : -69.634716
 P1      -C3      -C8      -C7      :-169.287675
 P1      -C3      -C8      -H49     : -47.131717
 P1      -C3      -C8      -H50     :  69.699520
 P1      -C9      -C10     -C11     :-176.567334
 P1      -C9      -C10     -H52     :  61.912220
 P1      -C9      -C10     -H53     : -55.607106
 P1      -C9      -C14     -C13     :-179.962271
 P1      -C9      -C14     -H60     : -58.000942
 P1      -C9      -C14     -H61     :  60.201212
 P1      -C15     -C40     -C41     : 171.983891
 P1      -C15     -C40     -C45     :  -8.641080
 P1      -C15     -C44     -C43     :-172.587532
 P1      -C15     -C44     -O36     :   6.146929
 Pd2     -P1      -C3      -C4      :  91.075667
 Pd2     -P1      -C3      -C8      : -34.974391
 Pd2     -P1      -C3      -H40     :-149.927766
 Pd2     -P1      -C9      -C10     : -60.723470
 Pd2     -P1      -C9      -C14     :  64.731663
 Pd2     -P1      -C9      -H51     :-176.931342
 Pd2     -P1      -C15     -C40     :   4.069141
 Pd2     -P1      -C15     -C44     : 174.400874
 Pd2     -N2      -C25     -C24     :  90.105271
 Pd2     -N2      -C25     -C26     : -89.894729
 Pd2     -C19     -C18     -C17     : 175.358092
 Pd2     -C19     -C18     -H24     :  -5.417776
 Pd2     -C19     -C20     -C21     :-175.508721
 Pd2     -C19     -C20     -H25     :   5.447408
 N2      -Pd2     -P1      -C3      :  57.000000
 N2      -Pd2     -P1      -C9      : -63.126383
 N2      -Pd2     -P1      -C15     :-178.831778
 N2      -Pd2     -C19     -C18     :  91.593634
 N2      -Pd2     -C19     -C20     : -91.899915
 N2      -C25     -C24     -C23     : 180.000000
 N2      -C25     -C24     -H28     :   0.000001
 N2      -C25     -C26     -C27     : 180.000000
 N2      -C25     -C26     -H29     :   0.000000
 C16     -C17     -C18     -C19     :   0.715588
 C16     -C17     -C18     -H24     :-178.517609
 C16     -C21     -C20     -C19     :  -0.434505
 C16     -C21     -C20     -H25     : 178.620373
 C17     -C16     -C21     -C20     :  -0.193424
 C17     -C16     -C21     -H26     : 179.449184
 C17     -C18     -C19     -C20     :  -1.292430
 C18     -C17     -C16     -C21     :   0.055695
 C18     -C17     -C16     -F10     :-179.100613
 C18     -C19     -C20     -C21     :   1.154437
 C18     -C19     -C20     -H25     :-177.889434
 C19     -Pd2     -P1      -C3      :  58.218729
 C19     -Pd2     -P1      -C9      : -61.907654
 C19     -Pd2     -P1      -C15     :-177.613049
 C19     -Pd2     -N2      -H18     : -97.202263
 C19     -Pd2     -N2      -C25     :  29.147667
 C19     -C18     -C17     -H23     :-179.944664
 C19     -C20     -C21     -H26     : 179.924240
 C20     -C19     -C18     -H24     : 177.931702
 C20     -C21     -C16     -F10     : 178.966622
 C21     -C16     -C17     -H23     :-179.285990
 F10     -C16     -C17     -H23     :   1.557702
 F10     -C16     -C21     -H26     :  -1.390769
 H23     -C17     -C18     -H24     :   0.822139
 H25     -C20     -C21     -H26     :  -1.020882
 H18     -N2      -C25     -C24     :-142.012991
 H18     -N2      -C25     -C26     :  37.987009
 C22     -C23     -C24     -C25     :   0.000000
 C22     -C23     -C24     -H28     : 179.999999
 C22     -C27     -C26     -C25     :  -0.000001
 C22     -C27     -C26     -H29     : 180.000000
 C23     -C22     -C27     -C26     :   0.000001
 C23     -C22     -C27     -H30     : 180.000000
 C23     -C24     -C25     -C26     :   0.000000
 C24     -C23     -C22     -C27     :   0.000000
 C24     -C23     -C22     -H22     : 180.000000
 C24     -C25     -C26     -C27     :   0.000000
 C24     -C25     -C26     -H29     : 180.000000
 C25     -C24     -C23     -H27     : 180.000000
 C25     -C26     -C27     -H30     :-179.999999
 C26     -C25     -C24     -H28     :-179.999999
 C26     -C27     -C22     -H22     : 180.000000
 C27     -C22     -C23     -H27     : 180.000000
 H22     -C22     -C23     -H27     :   0.000000
 H22     -C22     -C27     -H30     :   0.000000
 H27     -C23     -C24     -H28     :  -0.000001
 H29     -C26     -C27     -H30     :   0.000000
 C3      -P1      -C9      -C10     : 176.560205
 C3      -P1      -C9      -C14     : -57.984661
 C3      -P1      -C9      -H51     :  60.352333
 C3      -P1      -C15     -C40     : 128.793160
 C3      -P1      -C15     -C44     : -60.875107
 C3      -C4      -C5      -C6      :  59.308658
 C3      -C4      -C5      -H43     :-179.274375
 C3      -C4      -C5      -H44     : -61.892393
 C3      -C8      -C7      -C6      : -58.192460
 C3      -C8      -C7      -H47     :-179.812198
 C3      -C8      -C7      -H48     :  62.882889
 C4      -C3      -P1      -C9      :-145.173781
 C4      -C3      -P1      -C15     : -34.107767
 C4      -C3      -C8      -C7      :  59.675156
 C4      -C3      -C8      -H49     :-178.168885
 C4      -C3      -C8      -H50     : -61.337649
 C4      -C5      -C6      -C7      : -55.119754
 C4      -C5      -C6      -H45     :-177.126106
 C4      -C5      -C6      -H46     :  65.433232
 C5      -C4      -C3      -C8      : -60.233288
 C5      -C4      -C3      -H40     :  53.463667
 C5      -C6      -C7      -C8      :  54.573566
 C5      -C6      -C7      -H47     : 176.336307
 C5      -C6      -C7      -H48     : -66.436546
 C6      -C5      -C4      -H41     :-177.216787
 C6      -C5      -C4      -H42     : -62.137696
 C6      -C7      -C8      -H49     : 178.348316
 C6      -C7      -C8      -H50     :  63.296121
 C7      -C6      -C5      -H43     :-176.700207
 C7      -C6      -C5      -H44     :  65.940081
 C7      -C8      -C3      -H40     : -55.646904
 C8      -C3      -P1      -C9      :  88.776161
 C8      -C3      -P1      -C15     :-160.157826
 C8      -C3      -C4      -H41     : 177.903862
 C8      -C3      -C4      -H42     :  60.208326
 C8      -C7      -C6      -H45     : 176.575196
 C8      -C7      -C6      -H46     : -65.992517
 C9      -P1      -C3      -H40     : -26.177214
 C9      -P1      -C15     -C40     :-117.635352
 C9      -P1      -C15     -C44     :  52.696382
 C9      -C10     -C11     -C12     : -57.021071
 C9      -C10     -C11     -H54     :  64.010740
 C9      -C10     -C11     -H55     :-178.571318
 C9      -C14     -C13     -C12     :  56.244359
 C9      -C14     -C13     -H58     : -64.733025
 C9      -C14     -C13     -H59     : 178.011177
 C10     -C9      -P1      -C15     :  60.397225
 C10     -C9      -C14     -C13     : -53.757089
 C10     -C9      -C14     -H60     :  68.204241
 C10     -C9      -C14     -H61     :-173.593606
 C10     -C11     -C12     -C13     :  56.989562
 C10     -C11     -C12     -H56     : -63.737169
 C10     -C11     -C12     -H57     : 178.478605
 C11     -C10     -C9      -C14     :  54.380734
 C11     -C10     -C9      -H51     : -61.210102
 C11     -C12     -C13     -C14     : -56.858653
 C11     -C12     -C13     -H58     :  64.168238
 C11     -C12     -C13     -H59     :-178.692164
 C12     -C11     -C10     -H52     :  64.096393
 C12     -C11     -C10     -H53     :-178.747869
 C12     -C13     -C14     -H60     : -65.522455
 C12     -C13     -C14     -H61     : 177.489555
 C13     -C12     -C11     -H54     : -63.955251
 C13     -C12     -C11     -H55     : 178.608293
 C13     -C14     -C9      -H51     :  62.168088
 C14     -C9      -P1      -C15     :-174.147642
 C14     -C9      -C10     -H52     : -67.139713
 C14     -C9      -C10     -H53     : 175.340961
 C14     -C13     -C12     -H56     :  63.881404
 C14     -C13     -C12     -H57     :-178.323655
 C15     -P1      -C3      -H40     :  84.888800
 C15     -P1      -C9      -H51     : -55.810647
 C15     -C40     -C41     -C42     :  -1.211674
 C15     -C40     -C41     -O38     : 174.704477
 C15     -C40     -C45     -C46     : 106.312724
 C15     -C40     -C45     -C50     : -74.793750
 C15     -C44     -C43     -C42     :   0.582654
 C15     -C44     -C43     -H63     :-179.685155
 C15     -C44     -O36     -C37     : 173.920676
 C40     -C15     -C44     -C43     :  -1.988453
 C40     -C15     -C44     -O36     : 176.746008
 C40     -C41     -C42     -C43     :  -0.160242
 C40     -C41     -C42     -H62     : 179.424135
 C40     -C41     -O38     -C39     :-169.338857
 C40     -C45     -C46     -C47     :-179.803181
 C40     -C45     -C46     -C31     :  -5.486577
 C40     -C45     -C50     -C49     :-179.918040
 C40     -C45     -C50     -C51     :  -7.851630
 C41     -C40     -C15     -C44     :   2.324640
 C41     -C40     -C45     -C46     : -74.295785
 C41     -C40     -C45     -C50     : 104.597740
 C41     -C42     -C43     -C44     :   0.485811
 C41     -C42     -C43     -H63     :-179.255501
 C41     -O38     -C39     -H90     : 173.917434
 C41     -O38     -C39     -H91     : -67.382869
 C41     -O38     -C39     -H92     :  55.845501
 C42     -C41     -C40     -C45     : 179.363309
 C42     -C41     -O38     -C39     :   6.496845
 C42     -C43     -C44     -O36     :-178.158510
 C43     -C42     -C41     -O38     :-176.065905
 C43     -C44     -O36     -C37     :  -7.380356
 C44     -C15     -C40     -C45     :-178.300331
 C44     -C43     -C42     -H62     :-179.113854
 C44     -O36     -C37     -H87     :-176.871282
 C44     -O36     -C37     -H88     :  64.743069
 C44     -O36     -C37     -H89     : -58.537095
 C45     -C40     -C41     -O38     :  -4.720540
 C45     -C46     -C47     -C48     :  -0.533899
 C45     -C46     -C47     -H64     : 178.627488
 C45     -C46     -C31     -C30     : 127.107180
 C45     -C46     -C31     -C32     :-111.353379
 C45     -C46     -C31     -H76     :   3.932119
 C45     -C50     -C49     -C48     :  -0.025920
 C45     -C50     -C49     -H65     : 178.350264
 C45     -C50     -C51     -C28     : -97.611058
 C45     -C50     -C51     -C29     : 139.820877
 C45     -C50     -C51     -H66     :  15.476161
 C46     -C45     -C50     -C49     :  -0.991216
 C46     -C45     -C50     -C51     : 171.075193
 C46     -C47     -C48     -C49     :  -0.479812
 C46     -C47     -C48     -C34     :-179.846713
 C46     -C31     -C30     -H73     :  72.797348
 C46     -C31     -C30     -H74     :-167.661808
 C46     -C31     -C30     -H75     : -47.005828
 C46     -C31     -C32     -H77     : -66.380744
 C46     -C31     -C32     -H78     : 173.491349
 C46     -C31     -C32     -H79     :  53.675279
 C47     -C46     -C45     -C50     :   1.255466
 C47     -C46     -C31     -C30     : -58.303934
 C47     -C46     -C31     -C32     :  63.235507
 C47     -C46     -C31     -H76     : 178.521005
 C47     -C48     -C49     -C50     :   0.764190
 C47     -C48     -C49     -H65     :-177.663878
 C47     -C48     -C34     -C33     :  37.475623
 C47     -C48     -C34     -C35     : 161.901470
 C47     -C48     -C34     -H83     : -80.333846
 C48     -C47     -C46     -C31     :-175.475746
 C48     -C49     -C50     -C51     :-172.802318
 C48     -C34     -C33     -H80     :  63.944766
 C48     -C34     -C33     -H81     : -56.435995
 C48     -C34     -C33     -H82     :-176.046948
 C48     -C34     -C35     -H84     : -64.132907
 C48     -C34     -C35     -H85     :  56.286118
 C48     -C34     -C35     -H86     : 175.881942
 C49     -C48     -C47     -H64     :-179.664753
 C49     -C48     -C34     -C33     :-141.853806
 C49     -C48     -C34     -C35     : -17.427960
 C49     -C48     -C34     -H83     : 100.336725
 C49     -C50     -C51     -C28     :  74.800742
 C49     -C50     -C51     -C29     : -47.767323
 C49     -C50     -C51     -H66     :-172.112039
 C50     -C45     -C46     -C31     : 175.572070
 C50     -C49     -C48     -C34     :-179.870756
 C50     -C51     -C28     -H67     : -62.918265
 C50     -C51     -C28     -H68     :  57.197085
 C50     -C51     -C28     -H69     : 176.891982
 C50     -C51     -C29     -H70     :  71.409840
 C50     -C51     -C29     -H71     :-170.380230
 C50     -C51     -C29     -H72     : -49.526381
 C51     -C50     -C49     -H65     :   5.573866
 C28     -C51     -C29     -H70     : -50.657022
 C28     -C51     -C29     -H71     :  67.552907
 C28     -C51     -C29     -H72     :-171.593244
 C29     -C51     -C28     -H67     :  62.827879
 C29     -C51     -C28     -H68     :-177.056771
 C29     -C51     -C28     -H69     : -57.361874
 C30     -C31     -C32     -H77     :  58.354625
 C30     -C31     -C32     -H78     : -61.773282
 C30     -C31     -C32     -H79     : 178.410648
 C31     -C46     -C47     -H64     :   3.685641
 C32     -C31     -C30     -H73     : -50.406801
 C32     -C31     -C30     -H74     :  69.134043
 C32     -C31     -C30     -H75     :-170.209977
 C33     -C34     -C35     -H84     :  60.104192
 C33     -C34     -C35     -H85     :-179.476782
 C33     -C34     -C35     -H86     : -59.880958
 C34     -C48     -C47     -H64     :   0.968346
 C34     -C48     -C49     -H65     :   1.701176
 C35     -C34     -C33     -H80     : -60.347228
 C35     -C34     -C33     -H81     : 179.272011
 C35     -C34     -C33     -H82     :  59.661058
 O36     -C44     -C43     -H63     :   1.573680
 O38     -C41     -C42     -H62     :   3.518472
 H40     -C3      -C4      -H41     : -68.399183
 H40     -C3      -C4      -H42     : 173.905282
 H40     -C3      -C8      -H49     :  66.509054
 H40     -C3      -C8      -H50     :-176.659709
 H41     -C4      -C5      -H43     : -55.799821
 H41     -C4      -C5      -H44     :  61.582161
 H42     -C4      -C5      -H43     :  59.279271
 H42     -C4      -C5      -H44     : 176.661253
 H43     -C5      -C6      -H45     :  61.293441
 H43     -C5      -C6      -H46     : -56.147221
 H44     -C5      -C6      -H45     : -56.066271
 H44     -C5      -C6      -H46     :-173.506933
 H45     -C6      -C7      -H47     : -61.662063
 H45     -C6      -C7      -H48     :  55.565084
 H46     -C6      -C7      -H47     :  55.770224
 H46     -C6      -C7      -H48     : 172.997372
 H47     -C7      -C8      -H49     :  56.728577
 H47     -C7      -C8      -H50     : -58.323618
 H48     -C7      -C8      -H49     : -60.576336
 H48     -C7      -C8      -H50     :-175.628531
 H51     -C9      -C10     -H52     : 177.269451
 H51     -C9      -C10     -H53     :  59.750125
 H51     -C9      -C14     -H60     :-175.870582
 H51     -C9      -C14     -H61     : -57.668429
 H52     -C10     -C11     -H54     :-174.871796
 H52     -C10     -C11     -H55     : -57.453854
 H53     -C10     -C11     -H54     : -57.716058
 H53     -C10     -C11     -H55     :  59.701883
 H54     -C11     -C12     -H56     : 175.318019
 H54     -C11     -C12     -H57     :  57.533792
 H55     -C11     -C12     -H56     :  57.881563
 H55     -C11     -C12     -H57     : -59.902664
 H56     -C12     -C13     -H58     :-175.091706
 H56     -C12     -C13     -H59     : -57.952107
 H57     -C12     -C13     -H58     : -57.296765
 H57     -C12     -C13     -H59     :  59.842834
 H58     -C13     -C14     -H60     : 173.500161
 H58     -C13     -C14     -H61     :  56.512171
 H59     -C13     -C14     -H60     :  56.244363
 H59     -C13     -C14     -H61     : -60.743627
 H62     -C42     -C43     -H63     :   1.144834
 H66     -C51     -C28     -H67     : 179.158608
 H66     -C51     -C28     -H68     : -60.726042
 H66     -C51     -C28     -H69     :  58.968856
 H66     -C51     -C29     -H70     :-163.325785
 H66     -C51     -C29     -H71     : -45.115856
 H66     -C51     -C29     -H72     :  75.737993
 H73     -C30     -C31     -H76     :-162.702274
 H74     -C30     -C31     -H76     : -43.161430
 H75     -C30     -C31     -H76     :  77.494550
 H76     -C31     -C32     -H77     : 173.880183
 H76     -C31     -C32     -H78     :  53.752275
 H76     -C31     -C32     -H79     : -66.063794
 H80     -C33     -C34     -H83     :-177.188994
 H81     -C33     -C34     -H83     :  62.430244
 H82     -C33     -C34     -H83     : -57.180708
 H83     -C34     -C35     -H84     : 176.996873
 H83     -C34     -C35     -H85     : -62.584102
 H83     -C34     -C35     -H86     :  57.011722
 
  nuclear repulsion energy.......          9036.350500191 hartrees
  
  Detected an organometallic with only one TM atom. 
  
  Oxidation state on metal       2 is     2
  Formal multiplet on metal      2 is     1
  Formal charge on ligand        3 is    -1
  Formal multiplet on ligand     3 is     1
  Formal charge on ligand        4 is    -1
  Formal multiplet on ligand     4 is     1
  
 
  Will use High-Quality Initial guess for organometallics
       including d-d repulsion (iguess=30)
 
 Non-default options chosen:
   SCF calculation type: DFT(b3pw91-d3)              
   DFT=Becke_3_Parameter/HF+Slater+Becke88+PW91+PW-GGAIIC (B3PW91-D3)
   Geometry will be optimized in redundant internal coordinates
   Solvation energy will be computed using PBF
     -solute cavity energy will not be included
     -surface area terms will not be included
   Vibrational frequencies and related properties will be computed
      from analytic second derivatives
   IR intensities will be computed
   Thermochemical properties will be computed
   Maximum number of geometry steps: 100
   Scaling standard convergence criteria by a factor of   5.00
   Solvent: benzene                                                         
   Internal dielectric constant:    1.000
   Continuum dielectric constant:   2.283
   Solvent probe molecule radius:   2.600
  
 Non-default print settings:
     11=  2
  
 Temporary integer options set:
     21= -1  73=  2
  
  atom       vdw   vdw2    cov     mass  grid  daf  charge   basis
  P1        2.147  2.074  1.060   30.974    Y    Y      Y    ps_6-31g*
  Pd2       1.450  1.450  1.280  105.903    Y    Y      Y    lacv3p*
  N2        1.831  1.600  0.750   14.003    Y    Y      Y    ps_6-31g*
  C16       1.949  1.900  0.770   12.000    Y    Y      Y    ps_6-31g*
  C17       1.949  1.900  0.770   12.000    Y    Y      Y    ps_6-31g*
  C18       1.949  1.900  0.770   12.000    Y    Y      Y    ps_6-31g*
  C19       1.949  1.900  0.770   12.000    Y    Y      Y    ps_6-31g*
  C20       1.949  1.900  0.770   12.000    Y    Y      Y    ps_6-31g*
  C21       1.949  1.900  0.770   12.000    Y    Y      Y    ps_6-31g*
  F10       1.736  1.682  0.720   18.998    Y    Y      Y    ps_6-31g*
  H23       1.597  1.150  0.320    1.008    Y    Y      Y    ps_6-31g*
  H24       1.597  1.150  0.320    1.008    Y    Y      Y    ps_6-31g*
  H25       1.597  1.150  0.320    1.008    Y    Y      Y    ps_6-31g*
  H26       1.597  1.150  0.320    1.008    Y    Y      Y    ps_6-31g*
  H18       1.597  1.150  0.320    1.008    Y    Y      Y    ps_6-31g*
  C22       1.949  1.900  0.770   12.000    Y    Y      Y    ps_6-31g*
  C23       1.949  1.900  0.770   12.000    Y    Y      Y    ps_6-31g*
  C24       1.949  1.900  0.770   12.000    Y    Y      Y    ps_6-31g*
  C25       1.949  1.900  0.770   12.000    Y    Y      Y    ps_6-31g*
  C26       1.949  1.900  0.770   12.000    Y    Y      Y    ps_6-31g*
  C27       1.949  1.900  0.770   12.000    Y    Y      Y    ps_6-31g*
  H22       1.597  1.150  0.320    1.008    Y    Y      Y    ps_6-31g*
  H27       1.597  1.150  0.320    1.008    Y    Y      Y    ps_6-31g*
  H28       1.597  1.150  0.320    1.008    Y    Y      Y    ps_6-31g*
  H29       1.597  1.150  0.320    1.008    Y    Y      Y    ps_6-31g*
  H30       1.597  1.150  0.320    1.008    Y    Y      Y    ps_6-31g*
  C3        1.949  1.900  0.770   12.000    Y    Y      Y    ps_6-31g*
  C4        1.949  1.900  0.770   12.000    Y    Y      Y    ps_6-31g*
  C5        1.949  1.900  0.770   12.000    Y    Y      Y    ps_6-31g*
  C6        1.949  1.900  0.770   12.000    Y    Y      Y    ps_6-31g*
  C7        1.949  1.900  0.770   12.000    Y    Y      Y    ps_6-31g*
  C8        1.949  1.900  0.770   12.000    Y    Y      Y    ps_6-31g*
  C9        1.949  1.900  0.770   12.000    Y    Y      Y    ps_6-31g*
  C10       1.949  1.900  0.770   12.000    Y    Y      Y    ps_6-31g*
  C11       1.949  1.900  0.770   12.000    Y    Y      Y    ps_6-31g*
  C12       1.949  1.900  0.770   12.000    Y    Y      Y    ps_6-31g*
  C13       1.949  1.900  0.770   12.000    Y    Y      Y    ps_6-31g*
  C14       1.949  1.900  0.770   12.000    Y    Y      Y    ps_6-31g*
  C15       1.949  1.900  0.770   12.000    Y    Y      Y    ps_6-31g*
  C40       1.949  1.900  0.770   12.000    Y    Y      Y    ps_6-31g*
  C41       1.949  1.900  0.770   12.000    Y    Y      Y    ps_6-31g*
  C42       1.949  1.900  0.770   12.000    Y    Y      Y    ps_6-31g*
  C43       1.949  1.900  0.770   12.000    Y    Y      Y    ps_6-31g*
  C44       1.949  1.900  0.770   12.000    Y    Y      Y    ps_6-31g*
  C45       1.949  1.900  0.770   12.000    Y    Y      Y    ps_6-31g*
  C46       1.949  1.900  0.770   12.000    Y    Y      Y    ps_6-31g*
  C47       1.949  1.900  0.770   12.000    Y    Y      Y    ps_6-31g*
  C48       1.949  1.900  0.770   12.000    Y    Y      Y    ps_6-31g*
  C49       1.949  1.900  0.770   12.000    Y    Y      Y    ps_6-31g*
  C50       1.949  1.900  0.770   12.000    Y    Y      Y    ps_6-31g*
  C51       1.949  1.900  0.770   12.000    Y    Y      Y    ps_6-31g*
  C28       1.949  1.900  0.770   12.000    Y    Y      Y    ps_6-31g*
  C29       1.949  1.900  0.770   12.000    Y    Y      Y    ps_6-31g*
  C30       1.949  1.900  0.770   12.000    Y    Y      Y    ps_6-31g*
  C31       1.949  1.900  0.770   12.000    Y    Y      Y    ps_6-31g*
  C32       1.949  1.900  0.770   12.000    Y    Y      Y    ps_6-31g*
  C33       1.949  1.900  0.770   12.000    Y    Y      Y    ps_6-31g*
  C34       1.949  1.900  0.770   12.000    Y    Y      Y    ps_6-31g*
  C35       1.949  1.900  0.770   12.000    Y    Y      Y    ps_6-31g*
  O36       1.702  1.600  0.730   15.995    Y    Y      Y    ps_6-31g*
  C37       1.949  1.900  0.770   12.000    Y    Y      Y    ps_6-31g*
  O38       1.702  1.600  0.730   15.995    Y    Y      Y    ps_6-31g*
  C39       1.949  1.900  0.770   12.000    Y    Y      Y    ps_6-31g*
  H40       1.597  1.150  0.320    1.008    Y    Y      Y    ps_6-31g*
  H41       1.597  1.150  0.320    1.008    Y    Y      Y    ps_6-31g*
  H42       1.597  1.150  0.320    1.008    Y    Y      Y    ps_6-31g*
  H43       1.597  1.150  0.320    1.008    Y    Y      Y    ps_6-31g*
  H44       1.597  1.150  0.320    1.008    Y    Y      Y    ps_6-31g*
  H45       1.597  1.150  0.320    1.008    Y    Y      Y    ps_6-31g*
  H46       1.597  1.150  0.320    1.008    Y    Y      Y    ps_6-31g*
  H47       1.597  1.150  0.320    1.008    Y    Y      Y    ps_6-31g*
  H48       1.597  1.150  0.320    1.008    Y    Y      Y    ps_6-31g*
  H49       1.597  1.150  0.320    1.008    Y    Y      Y    ps_6-31g*
  H50       1.597  1.150  0.320    1.008    Y    Y      Y    ps_6-31g*
  H51       1.597  1.150  0.320    1.008    Y    Y      Y    ps_6-31g*
  H52       1.597  1.150  0.320    1.008    Y    Y      Y    ps_6-31g*
  H53       1.597  1.150  0.320    1.008    Y    Y      Y    ps_6-31g*
  H54       1.597  1.150  0.320    1.008    Y    Y      Y    ps_6-31g*
  H55       1.597  1.150  0.320    1.008    Y    Y      Y    ps_6-31g*
  H56       1.597  1.150  0.320    1.008    Y    Y      Y    ps_6-31g*
  H57       1.597  1.150  0.320    1.008    Y    Y      Y    ps_6-31g*
  H58       1.597  1.150  0.320    1.008    Y    Y      Y    ps_6-31g*
  H59       1.597  1.150  0.320    1.008    Y    Y      Y    ps_6-31g*
  H60       1.597  1.150  0.320    1.008    Y    Y      Y    ps_6-31g*
  H61       1.597  1.150  0.320    1.008    Y    Y      Y    ps_6-31g*
  H62       1.597  1.150  0.320    1.008    Y    Y      Y    ps_6-31g*
  H63       1.597  1.150  0.320    1.008    Y    Y      Y    ps_6-31g*
  H64       1.597  1.150  0.320    1.008    Y    Y      Y    ps_6-31g*
  H65       1.597  1.150  0.320    1.008    Y    Y      Y    ps_6-31g*
  H66       1.597  1.150  0.320    1.008    Y    Y      Y    ps_6-31g*
  H67       1.597  1.150  0.320    1.008    Y    Y      Y    ps_6-31g*
  H68       1.597  1.150  0.320    1.008    Y    Y      Y    ps_6-31g*
  H69       1.597  1.150  0.320    1.008    Y    Y      Y    ps_6-31g*
  H70       1.597  1.150  0.320    1.008    Y    Y      Y    ps_6-31g*
  H71       1.597  1.150  0.320    1.008    Y    Y      Y    ps_6-31g*
  H72       1.597  1.150  0.320    1.008    Y    Y      Y    ps_6-31g*
  H73       1.597  1.150  0.320    1.008    Y    Y      Y    ps_6-31g*
  H74       1.597  1.150  0.320    1.008    Y    Y      Y    ps_6-31g*
  H75       1.597  1.150  0.320    1.008    Y    Y      Y    ps_6-31g*
  H76       1.597  1.150  0.320    1.008    Y    Y      Y    ps_6-31g*
  H77       1.597  1.150  0.320    1.008    Y    Y      Y    ps_6-31g*
  H78       1.597  1.150  0.320    1.008    Y    Y      Y    ps_6-31g*
  H79       1.597  1.150  0.320    1.008    Y    Y      Y    ps_6-31g*
  H80       1.597  1.150  0.320    1.008    Y    Y      Y    ps_6-31g*
  H81       1.597  1.150  0.320    1.008    Y    Y      Y    ps_6-31g*
  H82       1.597  1.150  0.320    1.008    Y    Y      Y    ps_6-31g*
  H83       1.597  1.150  0.320    1.008    Y    Y      Y    ps_6-31g*
  H84       1.597  1.150  0.320    1.008    Y    Y      Y    ps_6-31g*
  H85       1.597  1.150  0.320    1.008    Y    Y      Y    ps_6-31g*
  H86       1.597  1.150  0.320    1.008    Y    Y      Y    ps_6-31g*
  H87       1.597  1.150  0.320    1.008    Y    Y      Y    ps_6-31g*
  H88       1.597  1.150  0.320    1.008    Y    Y      Y    ps_6-31g*
  H89       1.597  1.150  0.320    1.008    Y    Y      Y    ps_6-31g*
  H90       1.597  1.150  0.320    1.008    Y    Y      Y    ps_6-31g*
  H91       1.597  1.150  0.320    1.008    Y    Y      Y    ps_6-31g*
  H92       1.597  1.150  0.320    1.008    Y    Y      Y    ps_6-31g*
 
  atom      formal  2spin      esp    mulk    frag
  P1           0       0        Y    0.000       0
  Pd2          2       0        Y    0.000       0
  N2          -1       0        Y    0.000       0
  C16         -1       0        Y    0.000       0
  
  end of program pre
   
 Time(pre)  user:       1.275  user+sys:       1.275  wallclock:       1.201
  
  start of program onee
  
  smallest eigenvalue of S:    2.915E-04
  number of canonical orbitals.....          886
  end of program onee
   
 Time(onee)  user:      12.347  user+sys:      12.347  wallclock:       8.921
  
  start of program hfig
  
  initial wavefunction generated automatically from atomic wavefunctions
  Only one state below 0.010000
  Skip d-d repulsion considerations 
 
  Irreducible     Total no   No of occupied orbitals 
  representation  orbitals   Shell_1  Shell_2    ...
  No Symm          886        205
  ------------------------
  Orbital occupation/shell    1.000
 
  end of program hfig
   
 Time(hfig)  user:       2.607  user+sys:       2.607  wallclock:       2.565
  
  start of program probe
  
  end of program probe
   
 Time(probe)  user:       1.551  user+sys:       1.551  wallclock:       1.304
  
  start of program grid
  
   grid     grid set  grid #  grid sym
  ------    --------  ------  --------
  coarse        0        0        1
  medium        2        1        1
  fine          0        0        1
  ultrafine     4        2        1
  charge       -1        3        1
  gradient      4        2        1
  density       0        0        1
  DFT-fine    -11        4        1
  DFT-med.    -10        5        1
  DFT-grad    -12        6        1
  DFT-der2     -8        7        1
  DFT-cphf     -9        8        1
  LMP2-enrg     4        2        1
  LMP2-grad     2        1        1
  DFT-cphf2   -15        9        1
  PBF-dens      0        0        1
  plotting      0        0        1
  Rel-grad    -17        0        1
  
  number of gridpoints: 
     atom           P1         Pd2          N2         C16         C17         C18         C19
  grid # 1         602         354         105          78          92          94          99
  grid # 2         432         314         380         321         319         322         388
  grid # 3           7         231           6          15          11           6           6
  grid # 4        8714        8714        8714        8714        8714        8714        8714
  grid # 5        1192        1192        1192        1192        1192        1192        1192
  grid # 6        9132        9132        5922        5922        5922        5922        5922
  grid # 7       23034       32968       13958       13950       13950       13950       13950
  grid # 8         722        1150         756         748         748         748         748
  grid # 9         366        2198         406         394         394         394         394
   
  number of gridpoints: 
     atom          C20         C21         F10         H23         H24         H25         H26
  grid # 1          94          92         583         114         111         110         113
  grid # 2         322         320         561         465         450         440         458
  grid # 3           6          11         315         374         186         138         315
  grid # 4        8714        8714        8714        8714        8714        8714        8714
  grid # 5        1192        1192        1192        1192        1192        1192        1192
  grid # 6        5922        5922        5922        5922        5922        5922        5922
  grid # 7       13950       13950       23190       15206       15206       15206       15206
  grid # 8         748         748         770         786         786         786         786
  grid # 9         394         394         420         420         420         420         420
   
  number of gridpoints: 
     atom          H18         C22         C23         C24         C25         C26         C27
  grid # 1         103          96          96          96         100          96          96
  grid # 2         409         323         323         321         353         322         323
  grid # 3         115          38          36          26          28          31          34
  grid # 4        8714        8714        8714        8714        8714        8714        8714
  grid # 5        1192        1192        1192        1192        1192        1192        1192
  grid # 6        5922        5922        5922        5922        5922        5922        5922
  grid # 7       15206       13950       13950       13950       13950       13950       13950
  grid # 8         786         748         748         748         748         748         748
  grid # 9         420         394         394         394         394         394         394
   
  number of gridpoints: 
     atom          H22         H27         H28         H29         H30          C3          C4
  grid # 1         117         117         103         112         117          79          92
  grid # 2         466         465         419         447         465         329         278
  grid # 3         405         399         104         230         380           6           6
  grid # 4        8714        8714        8714        8714        8714        8714        8714
  grid # 5        1192        1192        1192        1192        1192        1192        1192
  grid # 6        5922        5922        5922        5922        5922        5922        5922
  grid # 7       15206       15206       15206       15206       15206       13950       13950
  grid # 8         786         786         786         786         786         748         748
  grid # 9         420         420         420         420         420         394         394
   
  number of gridpoints: 
     atom           C5          C6          C7          C8          C9         C10         C11
  grid # 1          92          92          92          91          79          90          92
  grid # 2         281         281         283         277         322         280         280
  grid # 3           6           6           6           6           6           6           6
  grid # 4        8714        8714        8714        8714        8714        8714        8714
  grid # 5        1192        1192        1192        1192        1192        1192        1192
  grid # 6        5922        5922        5922        5922        5922        5922        5922
  grid # 7       13950       13950       13950       13950       13950       13950       13950
  grid # 8         748         748         748         748         748         748         748
  grid # 9         394         394         394         394         394         394         394
   
  number of gridpoints: 
     atom          C12         C13         C14         C15         C40         C41         C42
  grid # 1          92          92          90          90          98          92          96
  grid # 2         277         283         278         381         352         345         326
  grid # 3           6           6           6           7           6          15          32
  grid # 4        8714        8714        8714        8714        8714        8714        8714
  grid # 5        1192        1192        1192        1192        1192        1192        1192
  grid # 6        5922        5922        5922        5922        5922        5922        5922
  grid # 7       13950       13950       13950       13950       13950       13950       13950
  grid # 8         748         748         748         748         748         748         748
  grid # 9         394         394         394         394         394         394         394
   
  number of gridpoints: 
     atom          C43         C44         C45         C46         C47         C48         C49
  grid # 1          95          93          97          97          93          99          92
  grid # 2         326         344         350         362         327         359         325
  grid # 3          32          14           9          12          20          16          16
  grid # 4        8714        8714        8714        8714        8714        8714        8714
  grid # 5        1192        1192        1192        1192        1192        1192        1192
  grid # 6        5922        5922        5922        5922        5922        5922        5922
  grid # 7       13950       13950       13950       13950       13950       13950       13950
  grid # 8         748         748         748         748         748         748         748
  grid # 9         394         394         394         394         394         394         394
   
  number of gridpoints: 
     atom          C50         C51         C28         C29         C30         C31         C32
  grid # 1          98          91          82          81          83          91          80
  grid # 2         360         308         240         243         238         308         246
  grid # 3          10           6           6           6           6           6           6
  grid # 4        8714        8714        8714        8714        8714        8714        8714
  grid # 5        1192        1192        1192        1192        1192        1192        1192
  grid # 6        5922        5922        5922        5922        5922        5922        5922
  grid # 7       13950       13950       13950       13950       13950       13950       13950
  grid # 8         748         748         748         748         748         748         748
  grid # 9         394         394         394         394         394         394         394
   
  number of gridpoints: 
     atom          C33         C34         C35         O36         C37         O38         C39
  grid # 1          81          91          81         115          76         119          76
  grid # 2         247         304         246         434         226         453         229
  grid # 3           6           6           6          11           6          44           6
  grid # 4        8714        8714        8714        8714        8714        8714        8714
  grid # 5        1192        1192        1192        1192        1192        1192        1192
  grid # 6        5922        5922        5922        5922        5922        5922        5922
  grid # 7       13950       13950       13950       23382       13950       23382       13950
  grid # 8         748         748         748         774         748         774         748
  grid # 9         394         394         394         416         394         416         394
   
  number of gridpoints: 
     atom          H40         H41         H42         H43         H44         H45         H46
  grid # 1          99         106         103         112         110         112         110
  grid # 2         423         439         414         457         447         458         453
  grid # 3          71         148          39         320         232         331         237
  grid # 4        8714        8714        8714        8714        8714        8714        8714
  grid # 5        1192        1192        1192        1192        1192        1192        1192
  grid # 6        5922        5922        5922        5922        5922        5922        5922
  grid # 7       15206       15206       15206       15206       15206       15206       15206
  grid # 8         786         786         786         786         786         786         786
  grid # 9         420         420         420         420         420         420         420
   
  number of gridpoints: 
     atom          H47         H48         H49         H50         H51         H52         H53
  grid # 1         111         110         100          98          99          96         102
  grid # 2         454         451         420         395         413         403         426
  grid # 3         277         247          84          19          63          41         100
  grid # 4        8714        8714        8714        8714        8714        8714        8714
  grid # 5        1192        1192        1192        1192        1192        1192        1192
  grid # 6        5922        5922        5922        5922        5922        5922        5922
  grid # 7       15206       15206       15206       15206       15206       15206       15206
  grid # 8         786         786         786         786         786         786         786
  grid # 9         420         420         420         420         420         420         420
   
  number of gridpoints: 
     atom          H54         H55         H56         H57         H58         H59         H60
  grid # 1         110         111         110         112         110         112          98
  grid # 2         452         452         454         459         451         458         400
  grid # 3         243         269         257         334         251         328          59
  grid # 4        8714        8714        8714        8714        8714        8714        8714
  grid # 5        1192        1192        1192        1192        1192        1192        1192
  grid # 6        5922        5922        5922        5922        5922        5922        5922
  grid # 7       15206       15206       15206       15206       15206       15206       15206
  grid # 8         786         786         786         786         786         786         786
  grid # 9         420         420         420         420         420         420         420
   
  number of gridpoints: 
     atom          H61         H62         H63         H64         H65         H66         H67
  grid # 1         103         112         113         101         102         105         107
  grid # 2         433         447         446         417         411         429         446
  grid # 3         140         259         261          73          40          87         250
  grid # 4        8714        8714        8714        8714        8714        8714        8714
  grid # 5        1192        1192        1192        1192        1192        1192        1192
  grid # 6        5922        5922        5922        5922        5922        5922        5922
  grid # 7       15206       15206       15206       15206       15206       15206       15206
  grid # 8         786         786         786         786         786         786         786
  grid # 9         420         420         420         420         420         420         420
   
  number of gridpoints: 
     atom          H68         H69         H70         H71         H72         H73         H74
  grid # 1         107         110         103         108         102         104         108
  grid # 2         445         455         437         444         428         439         453
  grid # 3         220         320         209         237          73         230         324
  grid # 4        8714        8714        8714        8714        8714        8714        8714
  grid # 5        1192        1192        1192        1192        1192        1192        1192
  grid # 6        5922        5922        5922        5922        5922        5922        5922
  grid # 7       15206       15206       15206       15206       15206       15206       15206
  grid # 8         786         786         786         786         786         786         786
  grid # 9         420         420         420         420         420         420         420
   
  number of gridpoints: 
     atom          H75         H76         H77         H78         H79         H80         H81
  grid # 1         109         107         104         108          97         110         102
  grid # 2         448         429         435         446         402         455         431
  grid # 3         255         117         184         243          55         312         210
  grid # 4        8714        8714        8714        8714        8714        8714        8714
  grid # 5        1192        1192        1192        1192        1192        1192        1192
  grid # 6        5922        5922        5922        5922        5922        5922        5922
  grid # 7       15206       15206       15206       15206       15206       15206       15206
  grid # 8         786         786         786         786         786         786         786
  grid # 9         420         420         420         420         420         420         420
   
  number of gridpoints: 
     atom          H82         H83         H84         H85         H86         H87         H88
  grid # 1         110         104         109         100         109         110         111
  grid # 2         455         418         448         424         453         458         451
  grid # 3         313          61         276         137         289         334         304
  grid # 4        8714        8714        8714        8714        8714        8714        8714
  grid # 5        1192        1192        1192        1192        1192        1192        1192
  grid # 6        5922        5922        5922        5922        5922        5922        5922
  grid # 7       15206       15206       15206       15206       15206       15206       15206
  grid # 8         786         786         786         786         786         786         786
  grid # 9         420         420         420         420         420         420         420
   
  number of gridpoints: 
     atom          H89         H90         H91         H92       total
  grid # 1         112         112         111         111       12902
  grid # 2         449         463         451         449       44730
  grid # 3         315         368         314         304       14899
  grid # 4        8714        8714        8714        8714     1010824
  grid # 5        1192        1192        1192        1192      138272
  grid # 6        5922        5922        5922        5922      693372
  grid # 7       15206       15206       15206       15206     1753542
  grid # 8         786         786         786         786       89620
  grid # 9         420         420         420         420       49200
   
  end of program grid
   
 Time(grid)  user:    1328.795  user+sys:    1328.795  wallclock:     673.046
  
  start of program rwr
  
  end of program rwr
   
 Time(rwr)  user:      39.663  user+sys:      39.663  wallclock:      49.277
  
  start of program scf
  
 number of electrons..........        410
 number of alpha electrons....        205
 number of beta electrons.....        205
 number of orbitals, total....        886
 number of doubly-occ'd orbs..        205
 number of open shell orbs....          0
 number of occupied orbitals..        205
 number of virtual orbitals...        681
 number of hamiltonians.......          1
 number of shells.............          1
 SCF type: DFT=Becke_3_Parameter/HF+Slater+Becke88+PW91+PW-GGAIIC (B3PW91-D3)
 Energy computed using pseudospectral method.
 Convergence Criterion:
    Energy (econv):       1.00E-05
    RMS density (dconv):  5.00E-06
  
       i  u  d  i  g                   
       t  p  i  c  r                                 RMS    maximum
       e  d  i  u  i                       energy  density   DIIS  
       r  t  s  t  d       total energy    change  change    error 
  
etot    1  N  N  5  M   -2594.65877197706           1.7E-03  2.3E-01
etot    2  Y  Y  6  M   -2599.31814883723  4.7E+00  2.5E-03  1.4E-01
etot    3  Y  Y  6  M   -2600.65285079373  1.3E+00  9.8E-04  6.7E-02
etot    4  N  Y  2  U   -2601.04750880153  3.9E-01  7.3E-04  4.4E-02
etot    5  Y  Y  6  M   -2601.14237954785  9.5E-02  4.3E-04  2.7E-02
etot    6  N  Y  2  U   -2601.14860709870  6.2E-03  5.0E-04  1.4E-02
etot    7  Y  Y  6  M   -2601.16011071008  1.2E-02  8.5E-05  4.4E-03
etot    8  N  Y  2  U   -2601.16652486428  6.4E-03  3.1E-05  1.3E-03
etot    9  N  Y  2  U   -2601.16684749561  3.2E-04  8.8E-06  2.9E-04
etot   10  N  Y  2  U   -2601.16685925994  1.2E-05  3.8E-06  1.1E-04
etot   11  N  N  2  U   -2601.16686335048  4.1E-06  0.0E+00  0.0E+00
 
  Computing the dispersion energy correction and its gradients...
  
  
 Energy components, in hartrees:
   (A)  Nuclear repulsion............    9036.35050019116
   (E)  Total one-electron terms.....  -21609.35157711194
   (F)    Electron-nuclear...........  -24114.09141754688
   (H)    Kinetic....................    2504.73984043494
   (I)  Total two-electron terms.....    9971.83421357030
   (J)    Coulomb....................   10320.32777788190
   (K)    Exchange+Correlation.......    -348.49356431159
   (L)  Electronic energy............  -11637.51736354164  (E+I)
   (N0) D3 correction................      -0.22854615618
   (N)  Total energy.................   -2601.39540950666  (A+L+N0)
   (O)  Gas phase energy.............   -2601.39540950666
  
 SCFE: SCF energy: DFT(b3pw91-d3)     -2601.39540950666 hartrees   iterations:  11
  
 
 HOMO energy:    -0.16662
 LUMO energy:    -0.04544
 
  Orbital energies (hartrees): 
   -77.05068   -24.66890   -19.18204   -19.17104   -14.28697   -10.25046
   -10.24592   -10.24544   -10.23702   -10.22526   -10.20036   -10.19473
   -10.18993   -10.18838   -10.18397   -10.18210   -10.17884   -10.17580
   -10.17541   -10.17495   -10.17415   -10.16842   -10.16651   -10.16509
   -10.16483   -10.16482   -10.16328   -10.16289   -10.16282   -10.16226
   -10.15800   -10.15653   -10.15599   -10.15555   -10.15521   -10.15488
   -10.15432   -10.15316   -10.15041   -10.14902   -10.14813   -10.14809
   -10.14681   -10.14650   -10.14597   -10.14385   -10.14317   -10.14218
   -10.14186   -10.14180   -10.14135   -10.13246    -6.55469    -4.71303
    -4.71190    -4.70877    -3.31538    -2.04856    -2.04387    -2.01527
    -1.20559    -1.08921    -1.07597    -0.88231    -0.85723    -0.84878
    -0.83892    -0.82664    -0.82566    -0.81014    -0.80821    -0.79086
    -0.78967    -0.78489    -0.76428    -0.75571    -0.74174    -0.73703
    -0.73493    -0.73103    -0.72196    -0.71624    -0.71509    -0.71425
    -0.70711    -0.69022    -0.68412    -0.67667    -0.67407    -0.67024
    -0.66256    -0.63290    -0.61853    -0.61061    -0.60302    -0.59698
    -0.59607    -0.59078    -0.58779    -0.58667    -0.57742    -0.57383
    -0.56200    -0.56172    -0.55099    -0.54708    -0.54053    -0.53417
    -0.53225    -0.52480    -0.51792    -0.51729    -0.49508    -0.49318
    -0.48677    -0.48575    -0.47607    -0.47273    -0.46725    -0.45922
    -0.45529    -0.45509    -0.45185    -0.44791    -0.44311    -0.44151
    -0.43740    -0.43699    -0.43566    -0.43473    -0.43321    -0.43251
    -0.43031    -0.42829    -0.42440    -0.42380    -0.42108    -0.41808
    -0.41697    -0.41100    -0.40822    -0.40398    -0.40337    -0.40125
    -0.39909    -0.39284    -0.39189    -0.38859    -0.38028    -0.37949
    -0.37689    -0.37500    -0.37402    -0.37242    -0.36965    -0.36815
    -0.36742    -0.36560    -0.36413    -0.36174    -0.35989    -0.35842
    -0.35701    -0.35366    -0.34979    -0.34608    -0.34163    -0.33824
    -0.33643    -0.33403    -0.33326    -0.33032    -0.32852    -0.32636
    -0.32454    -0.32269    -0.31992    -0.31799    -0.31586    -0.31357
    -0.30849    -0.30706    -0.30620    -0.30473    -0.30118    -0.29929
    -0.29808    -0.29559    -0.29357    -0.28794    -0.28257    -0.27942
    -0.26188    -0.25124    -0.24050    -0.23833    -0.22706    -0.22586
    -0.22360    -0.21877    -0.21530    -0.21174    -0.19559    -0.18687
    -0.16662    -0.04544    -0.03764    -0.01208     0.00014     0.00645
     0.01819     0.02633     0.03521     0.03811     0.04065
 
  end of program scf
   
 Time(scf)  user:    1220.860  user+sys:    1220.860  wallclock:     645.359
  
  start of program der1a
  
  end of program der1a
   
 Time(der1a)  user:      35.579  user+sys:      35.579  wallclock:      19.125
  
  start of program rwr
  
  end of program rwr
   
 Time(rwr)  user:      48.437  user+sys:      48.437  wallclock:      54.441
  
  start of program der1b
  
   
  forces (hartrees/bohr) : total     
   
 atom  label           x              y              z
 ---- --------   -------------  -------------  -------------
    1 P1          2.127110E-02  -2.329489E-02   5.248149E-02
    2 Pd2         2.276948E-03   3.745262E-03  -8.555796E-03
    3 N2         -4.696745E-04   3.605240E-02   2.040749E-02
    4 C16         1.211771E-03   1.038628E-03  -3.679867E-02
    5 C17        -2.725500E-03   6.560508E-03   1.179116E-02
    6 C18         3.679950E-03  -3.045903E-03  -2.042635E-03
    7 C19        -4.275210E-03  -2.967211E-03   4.112948E-03
    8 C20        -3.823611E-03   2.393248E-03  -9.427115E-05
    9 C21         6.711651E-03  -5.402353E-04   9.493365E-03
   10 F10         6.825629E-05   8.994294E-04   8.983584E-03
   11 H23         1.482243E-03  -1.452413E-03   9.099146E-04
   12 H24        -3.366130E-04  -1.738129E-03   1.324699E-03
   13 H25        -7.901528E-04   5.200743E-04   1.473742E-03
   14 H26        -2.056673E-03   1.096078E-03   5.484677E-04
   15 H18         2.412610E-02  -4.588066E-02   2.716289E-02
   16 C22         3.609716E-03  -1.324835E-03   2.178851E-03
   17 C23        -3.460806E-03   1.033476E-03   1.729626E-03
   18 C24         7.946398E-03  -2.705566E-03   4.655917E-03
   19 C25        -2.718773E-02   4.475074E-03  -2.205188E-02
   20 C26         1.067961E-02   1.284629E-02   1.122839E-02
   21 C27        -3.141417E-03   1.498537E-03  -4.068612E-03
   22 H22        -6.626935E-03  -1.779474E-03  -7.654573E-03
   23 H27        -9.447142E-03   3.944786E-03  -8.508727E-05
   24 H28        -2.004117E-03   1.010424E-02   1.845225E-02
   25 H29         1.041428E-02  -6.340124E-03  -1.346126E-03
   26 H30         2.680320E-03  -5.884142E-03  -8.175779E-03
   27 C3          1.440983E-02   5.071260E-03  -1.637666E-02
   28 C4         -1.110378E-02  -1.286717E-02  -3.886773E-03
   29 C5          4.067688E-03  -4.001476E-03  -3.137474E-03
   30 C6          1.054903E-02   1.135570E-03  -4.189522E-03
   31 C7          3.827124E-03  -2.299468E-04  -1.294017E-03
   32 C8          6.010043E-05   1.180465E-02   4.067608E-04
   33 C9         -2.060470E-02   3.524655E-02  -3.180692E-02
   34 C10        -6.088823E-03  -6.821781E-03   1.389420E-03
   35 C11        -6.387522E-03   1.164313E-03   2.598126E-04
   36 C12        -5.249614E-03   7.946752E-03  -3.349312E-03
   37 C13         5.289493E-04   6.090488E-03  -1.170858E-03
   38 C14         1.252907E-02   4.126650E-03   4.201983E-04
   39 C15        -2.588682E-03   3.776834E-03  -1.843487E-02
   40 C40        -2.401104E-03  -1.947145E-03  -4.277367E-02
   41 C41        -1.550302E-03  -1.366971E-02  -2.761053E-02
   42 C42        -2.329791E-03  -1.850566E-03  -5.364970E-03
   43 C43        -2.437555E-03  -1.326374E-03  -7.561556E-03
   44 C44        -1.911361E-02  -2.640834E-02  -1.741213E-02
   45 C45         2.899197E-03   1.146348E-02   5.525694E-02
   46 C46        -1.353798E-03   5.953832E-03   1.330013E-02
   47 C47        -1.668816E-03  -2.555989E-03   1.324666E-03
   48 C48        -2.574101E-03  -3.231231E-03  -1.064901E-02
   49 C49        -1.881218E-03  -3.061354E-03   4.653533E-03
   50 C50         6.238735E-03   2.806025E-04   1.081619E-02
   51 C51         2.006067E-03  -8.966161E-03  -1.112414E-02
   52 C28        -4.351558E-03  -1.420938E-02  -2.639214E-04
   53 C29         7.604380E-03   5.693003E-03   2.251626E-03
   54 C30        -8.093989E-03  -1.048475E-02  -3.139423E-04
   55 C31        -3.549265E-03   9.480478E-03  -8.719471E-03
   56 C32         2.206903E-03   1.163047E-02   7.727278E-03
   57 C33        -8.008538E-03  -1.070017E-03   6.421468E-03
   58 C34         2.646243E-03  -1.828316E-04   6.129576E-03
   59 C35         6.284064E-03  -3.913227E-03   7.353126E-03
   60 O36         1.543095E-02   7.164293E-03   1.855976E-02
   61 C37        -5.322061E-03  -8.607884E-03   1.663416E-04
   62 O38         8.156540E-03   1.270149E-02   2.625732E-02
   63 C39         2.836362E-03   5.723933E-03  -8.459848E-03
   64 H40         6.112563E-04  -7.148627E-03   3.237189E-03
   65 H41         3.630061E-03   6.504320E-03   4.863660E-03
   66 H42        -3.568346E-03   7.210792E-03  -8.033238E-03
   67 H43        -5.709829E-03   9.715264E-03   1.253990E-03
   68 H44         1.737450E-03  -4.041968E-03   8.619318E-03
   69 H45        -8.100483E-03  -2.692052E-03   6.817032E-03
   70 H46        -2.605545E-03   4.593843E-03  -8.331812E-03
   71 H47        -8.935505E-03  -4.639025E-03  -5.856441E-03
   72 H48         1.945554E-03  -4.537787E-03   7.729672E-03
   73 H49         5.825725E-03  -1.657503E-02  -1.172793E-03
   74 H50        -8.899592E-03   2.392950E-03  -2.043469E-02
   75 H51        -8.286152E-04   5.363302E-03   1.136711E-02
   76 H52         4.368019E-03   2.049841E-03  -1.912785E-02
   77 H53         5.201321E-03   8.511543E-03   6.513503E-03
   78 H54         8.955877E-05   1.499154E-03   9.456561E-03
   79 H55         1.064544E-02  -1.939289E-03  -4.154107E-03
   80 H56         2.585595E-04  -1.769560E-03  -9.738059E-03
   81 H57         5.402397E-03  -7.589242E-03   6.444020E-03
[...]
    H50      Y    -0.00140   0.00159   0.00006  -0.02320   0.00002   0.00019
    H50      Z     0.00197  -0.00222  -0.00007   0.03278  -0.00002   0.00003
    H51      X     0.00007  -0.00003   0.00009   0.00000  -0.00003   0.00007
    H51      Y    -0.00030   0.00001   0.00002  -0.00002  -0.00012   0.00008
    H51      Z    -0.00014  -0.00009   0.00063  -0.00001  -0.00035   0.00016
    H52      X    -0.00010  -0.00000   0.00002  -0.00002  -0.00002   0.00009
    H52      Y     0.00000  -0.00000   0.00003  -0.00001  -0.00001   0.00017
    H52      Z    -0.00037   0.00008   0.00020  -0.00057  -0.00007   0.00216
    H53      X    -0.00002   0.00016  -0.00000  -0.00023  -0.00000   0.00027
    H53      Y    -0.00001   0.00018   0.00004  -0.00028  -0.00007   0.00029
    H53      Z    -0.00000   0.00005  -0.00002  -0.00009  -0.00001   0.00018
    H54      X    -0.00006  -0.00000   0.00007  -0.00005  -0.00003   0.00005
    H54      Y    -0.00003  -0.00000   0.00001  -0.00003  -0.00001  -0.00005
    H54      Z    -0.00023  -0.00004   0.00033  -0.00019  -0.00021   0.00005
    H55      X     0.00048  -0.00004  -0.00003   0.00009  -0.00015   0.00020
    H55      Y    -0.00012   0.00001  -0.00000  -0.00003   0.00004  -0.00003
    H55      Z    -0.00021   0.00002   0.00003  -0.00003   0.00008  -0.00007
    H56      X    -0.00008   0.00001   0.00002  -0.00004  -0.00001  -0.00010
    H56      Y    -0.00006  -0.00000   0.00003  -0.00007  -0.00002   0.00013
    H56      Z    -0.00042   0.00003   0.00013  -0.00043  -0.00006   0.00024
    H57      X     0.00008  -0.00005   0.00004  -0.00002  -0.00008   0.00007
    H57      Y    -0.00016   0.00011  -0.00008   0.00004   0.00016  -0.00013
    H57      Z     0.00006  -0.00005   0.00003  -0.00003  -0.00006   0.00010
    H58      X    -0.00000  -0.00001   0.00004  -0.00003  -0.00003   0.00002
    H58      Y    -0.00001  -0.00000   0.00001  -0.00002  -0.00001   0.00003
    H58      Z    -0.00016  -0.00002   0.00027  -0.00024  -0.00014   0.00002
    H59      X    -0.00018   0.00010   0.00003  -0.00016   0.00005   0.00001
    H59      Y    -0.00028   0.00015  -0.00001  -0.00022   0.00011  -0.00003
    H59      Z    -0.00004   0.00002   0.00002  -0.00001   0.00001  -0.00002
    H60      X    -0.00011   0.00002   0.00000  -0.00005   0.00002   0.00034
    H60      Y    -0.00004   0.00001   0.00003   0.00004  -0.00000  -0.00016
    H60      Z    -0.00043   0.00008  -0.00003   0.00016   0.00008  -0.00212
    H61      X     0.00017   0.00013  -0.00019   0.00035   0.00009  -0.00013
    H61      Y    -0.00002  -0.00002   0.00004  -0.00007  -0.00002   0.00005
    H61      Z    -0.00010  -0.00008   0.00009  -0.00024  -0.00005   0.00044
    H62      X     0.00100   0.01783  -0.32603   0.00000  -0.39598   0.00001
    H62      Y     0.00143   0.02557  -0.46722   0.00001  -0.56827   0.00001
    H62      Z     0.00064   0.01121  -0.20617  -0.00000  -0.24551   0.00001
    H63      X    -0.00077  -0.00650   0.13117   0.00003  -0.10570   0.00001
    H63      Y    -0.00058  -0.00501   0.10120   0.00002  -0.07995   0.00001
    H63      Z    -0.00436  -0.03546   0.71672   0.00018  -0.58990   0.00003
    H64      X     0.01489  -0.00506  -0.00092  -0.00003  -0.00071   0.00002
    H64      Y    -0.00568   0.00241   0.00036   0.00003   0.00027  -0.00003
    H64      Z    -0.00986   0.00228   0.00059  -0.00003   0.00050  -0.00004
    H65      X     0.02664   0.68208   0.03538   0.03363   0.00168  -0.00000
    H65      Y    -0.01956  -0.50299  -0.02613  -0.02494  -0.00127   0.00000
    H65      Z     0.01644   0.42118   0.02189   0.02078   0.00107  -0.00000
    H66      X     0.00007   0.00199   0.00014   0.00003  -0.00003   0.00001
    H66      Y     0.00000  -0.00265  -0.00055   0.00010  -0.00008  -0.00000
    H66      Z    -0.00026   0.00316   0.00114  -0.00035   0.00016  -0.00004
    H67      X     0.00006   0.00203   0.00008   0.00010  -0.00001   0.00000
    H67      Y    -0.00025  -0.00959  -0.00052  -0.00049  -0.00002   0.00001
    H67      Z     0.00053   0.01904   0.00097   0.00099  -0.00001  -0.00000
    H68      X     0.00026   0.00657   0.00015   0.00067  -0.00004   0.00001
    H68      Y     0.00009   0.00215   0.00003   0.00019   0.00005   0.00000
    H68      Z     0.00012   0.00286   0.00007   0.00030   0.00003   0.00000
    H69      X     0.00003  -0.00232  -0.00020  -0.00005   0.00032  -0.00003
    H69      Y    -0.00005   0.00043   0.00004  -0.00001  -0.00016   0.00002
    H69      Z    -0.00002   0.00188   0.00015   0.00004  -0.00022   0.00003
    H70      X     0.00006   0.00295   0.00018  -0.00002   0.00002   0.00001
    H70      Y    -0.00034  -0.00976  -0.00055  -0.00032  -0.00005   0.00005
    H70      Z     0.00065   0.02564   0.00150  -0.00070   0.00016  -0.00007
    H71      X     0.00014  -0.00202  -0.00013  -0.00247   0.00020  -0.00011
    H71      Y     0.00001   0.00147   0.00010   0.00069  -0.00007   0.00013
    H71      Z    -0.00009   0.00206   0.00012   0.00196  -0.00013   0.00010
    H72      X     0.00008  -0.00039  -0.00004   0.00098  -0.00003   0.00019
    H72      Y    -0.00064  -0.00780  -0.00055   0.01954  -0.00020   0.00030
    H72      Z    -0.00039  -0.00056  -0.00005   0.00090  -0.00002   0.00001
    H73      X     0.00042   0.00029   0.00004   0.00000   0.00002  -0.00002
    H73      Y     0.00028   0.00015  -0.00001   0.00001   0.00000   0.00000
    H73      Z    -0.00099  -0.00061  -0.00014  -0.00001  -0.00012   0.00001
    H74      X    -0.00017  -0.00028   0.00006   0.00010  -0.00037   0.00004
    H74      Y     0.00011   0.00026  -0.00007  -0.00006   0.00026  -0.00002
    H74      Z    -0.00010  -0.00024   0.00005   0.00007  -0.00020   0.00003
    H75      X     0.00025   0.00004   0.00007   0.00002   0.00011  -0.00002
    H75      Y    -0.00101  -0.00017  -0.00041  -0.00014  -0.00015  -0.00005
    H75      Z    -0.00057  -0.00010  -0.00020  -0.00008  -0.00004  -0.00003
    H76      X     0.00011   0.00020  -0.00029   0.00001  -0.00006   0.00000
    H76      Y     0.00016   0.00022  -0.00023   0.00002  -0.00011  -0.00002
    H76      Z    -0.00049  -0.00088   0.00088  -0.00004   0.00020   0.00000
    H77      X     0.00048   0.00030  -0.00005   0.00003  -0.00003  -0.00002
    H77      Y     0.00016   0.00006  -0.00001   0.00002  -0.00001   0.00001
    H77      Z    -0.00245  -0.00072   0.00017  -0.00006   0.00013  -0.00001
    H78      X    -0.00317  -0.00030  -0.00001   0.00008  -0.00020  -0.00003
    H78      Y     0.00271   0.00024   0.00004  -0.00007   0.00017  -0.00002
    H78      Z    -0.00277  -0.00026  -0.00002   0.00005  -0.00014   0.00001
    H79      X    -0.01509   0.00047  -0.00023  -0.00018  -0.00021  -0.00022
    H79      Y    -0.00955   0.00032  -0.00017  -0.00009  -0.00017  -0.00012
    H79      Z    -0.00331   0.00005  -0.00004   0.00002  -0.00002   0.00003
    H80      X     0.00015   0.00017   0.00004   0.00000   0.00002   0.00000
    H80      Y    -0.00059  -0.00204  -0.00028  -0.00018  -0.00011   0.00001
    H80      Z    -0.00032  -0.00115  -0.00013  -0.00009  -0.00006   0.00001
    H81      X     0.00110   0.00225   0.00007   0.00026  -0.00000   0.00001
    H81      Y    -0.00056  -0.00109  -0.00002  -0.00012   0.00001  -0.00000
    H81      Z     0.00055   0.00087   0.00003   0.00011  -0.00001   0.00001
    H82      X     0.00004  -0.00069  -0.00004  -0.00003  -0.00004   0.00001
    H82      Y     0.00007  -0.00066  -0.00004  -0.00002  -0.00004   0.00001
    H82      Z    -0.00022   0.00249   0.00006   0.00008   0.00016  -0.00004
    H83      X    -0.00020  -0.00055  -0.00003   0.00007   0.00001  -0.00001
    H83      Y    -0.00155   0.00126   0.00002  -0.00021  -0.00003   0.00001
    H83      Z    -0.00059   0.00208   0.00010  -0.00006   0.00002   0.00001
    H84      X     0.00012   0.00290   0.00017   0.00016   0.00003  -0.00000
    H84      Y    -0.00056  -0.01221  -0.00067  -0.00058  -0.00010   0.00003
    H84      Z    -0.00031  -0.00712  -0.00039  -0.00033  -0.00006   0.00002
    H85      X     0.00045   0.01029   0.00044   0.00080  -0.00009   0.00002
    H85      Y     0.00020   0.00695   0.00029   0.00056  -0.00005  -0.00001
    H85      Z     0.00001  -0.00185  -0.00009  -0.00011  -0.00001   0.00001
    H86      X     0.00011   0.00339   0.00017   0.00025  -0.00002   0.00001
    H86      Y     0.00005   0.00085   0.00004   0.00009  -0.00002   0.00001
    H86      Z    -0.00046  -0.01071  -0.00052  -0.00085   0.00014  -0.00004
    H87      X    -0.00014  -0.00048   0.01268  -0.00001  -0.00704  -0.00001
    H87      Y    -0.00021  -0.00070   0.01866   0.00000  -0.01034  -0.00002
    H87      Z     0.00010   0.00027  -0.00806   0.00000   0.00404   0.00001
    H88      X     0.00009  -0.00073   0.01443   0.00011  -0.01033   0.00001
    H88      Y     0.00000   0.00002  -0.00067  -0.00000   0.00011   0.00000
    H88      Z     0.00004  -0.00013   0.00244   0.00003  -0.00170   0.00001
    H89      X     0.00001   0.00030  -0.00567   0.00002   0.00376  -0.00000
    H89      Y    -0.00000  -0.00079   0.01404  -0.00006  -0.01027   0.00003
    H89      Z     0.00002  -0.00022   0.00381  -0.00002  -0.00271   0.00002
    H90      X     0.00004  -0.00043   0.00328  -0.00002   0.00239   0.00000
    H90      Y     0.00011  -0.00083   0.00803  -0.00002   0.00614   0.00001
    H90      Z    -0.00017   0.00164  -0.01672   0.00004  -0.01373  -0.00002
    H91      X     0.00011   0.00067  -0.00871   0.00007  -0.00917   0.00003
    H91      Y    -0.00004  -0.00035   0.00403  -0.00003   0.00429  -0.00001
    H91      Z     0.00008   0.00037  -0.00503   0.00004  -0.00577   0.00002
    H92      X     0.00002  -0.00015   0.00700   0.00002   0.00726  -0.00000
    H92      Y    -0.00001   0.00005  -0.00654  -0.00002  -0.00672   0.00001
    H92      Z    -0.00001   0.00005  -0.00778  -0.00003  -0.00858   0.00001
  
  Number of imaginary frequencies:   0
   
  Writing vibrational animation data to red_elim_N_trans_L1_PL344.vib
  Writing IR vibrational spectrum data to red_elim_N_trans_L1_PL344_vib.spm
  rotational symmetry number:  1

  rotational temperatures (K):      0.002973      0.002564      0.001983
   
  The Quasi-Harmonic approximation will be applied to compute
  vibrational constributions to thermodynamic properties.
  Frequencies will be adjusted to a minimum value of  100.00 cm^-1.

  vibrational temperatures:
       mode:      1        2        3        4        5        6
  temp. (K):   143.88   143.88   143.88   143.88   143.88   143.88
   
       mode:      7        8        9       10       11       12
  temp. (K):   143.88   143.88   143.88   143.88   143.88   143.88
   
       mode:     13       14       15       16       17       18
  temp. (K):   143.88   143.88   143.88   143.88   143.88   143.88
   
       mode:     19       20       21       22       23       24
  temp. (K):   143.88   143.88   143.88   153.38   157.08   167.78
   
       mode:     25       26       27       28       29       30
  temp. (K):   173.17   191.70   198.91   204.00   216.45   220.99
   
       mode:     31       32       33       34       35       36
  temp. (K):   224.72   225.92   239.10   243.87   264.24   270.10
   
       mode:     37       38       39       40       41       42
  temp. (K):   296.46   298.51   303.04   322.54   326.30   346.56
   
       mode:     43       44       45       46       47       48
  temp. (K):   355.19   358.61   368.35   369.22   374.92   383.47
   
       mode:     49       50       51       52       53       54
  temp. (K):   384.23   390.12   396.06   412.90   425.39   430.54
   
       mode:     55       56       57       58       59       60
  temp. (K):   435.43   448.47   453.88   460.93   469.13   480.57
   
       mode:     61       62       63       64       65       66
  temp. (K):   486.15   488.25   516.64   536.04   546.50   556.71
   
       mode:     67       68       69       70       71       72
  temp. (K):   576.12   585.06   588.76   592.68   594.28   607.88
   
       mode:     73       74       75       76       77       78
  temp. (K):   616.01   631.25   645.53   652.44   657.48   671.33
   
       mode:     79       80       81       82       83       84
  temp. (K):   675.76   688.85   699.47   727.82   733.26   759.17
   
       mode:     85       86       87       88       89       90
  temp. (K):   761.42   766.06   791.23   795.38   810.51   832.08
   
       mode:     91       92       93       94       95       96
  temp. (K):   845.25   854.25   884.43   909.14   915.36   916.92
   
       mode:     97       98       99      100      101      102
  temp. (K):   918.12   922.35   965.88   973.09  1023.03  1026.07
   
       mode:    103      104      105      106      107      108
  temp. (K):  1041.48  1049.88  1075.58  1094.94  1107.12  1120.26
   
       mode:    109      110      111      112      113      114
  temp. (K):  1138.46  1168.01  1170.08  1173.31  1180.61  1190.41
   
       mode:    115      116      117      118      119      120
  temp. (K):  1190.55  1197.39  1201.27  1205.65  1213.24  1215.60
   
       mode:    121      122      123      124      125      126
  temp. (K):  1234.99  1241.26  1260.07  1262.98  1271.73  1301.33
   
       mode:    127      128      129      130      131      132
  temp. (K):  1310.05  1311.75  1313.90  1321.82  1322.62  1328.93
   
       mode:    133      134      135      136      137      138
  temp. (K):  1331.75  1346.50  1348.55  1364.24  1367.63  1368.95
   
       mode:    139      140      141      142      143      144
  temp. (K):  1370.22  1372.03  1372.62  1391.98  1400.60  1402.14
   
       mode:    145      146      147      148      149      150
  temp. (K):  1415.60  1417.38  1418.40  1423.63  1448.98  1476.18
   
       mode:    151      152      153      154      155      156
  temp. (K):  1482.52  1485.11  1515.02  1526.24  1526.89  1529.68
   
       mode:    157      158      159      160      161      162
  temp. (K):  1548.66  1554.60  1558.14  1580.32  1582.71  1593.09
   
       mode:    163      164      165      166      167      168
  temp. (K):  1598.31  1602.43  1605.26  1606.06  1615.83  1617.48
   
       mode:    169      170      171      172      173      174
  temp. (K):  1631.49  1640.02  1643.61  1648.15  1653.05  1659.38
   
       mode:    175      176      177      178      179      180
  temp. (K):  1662.88  1676.33  1701.10  1703.33  1717.08  1719.81
   
       mode:    181      182      183      184      185      186
  temp. (K):  1722.27  1725.13  1742.03  1745.81  1747.84  1751.00
   
       mode:    187      188      189      190      191      192
  temp. (K):  1753.44  1759.27  1769.77  1771.47  1790.64  1807.41
   
       mode:    193      194      195      196      197      198
  temp. (K):  1810.02  1834.56  1863.45  1867.87  1870.20  1876.01
   
       mode:    199      200      201      202      203      204
  temp. (K):  1881.94  1886.54  1890.30  1895.59  1896.23  1905.27
   
       mode:    205      206      207      208      209      210
  temp. (K):  1906.57  1923.33  1928.45  1930.53  1933.28  1935.44
   
       mode:    211      212      213      214      215      216
  temp. (K):  1939.07  1952.34  1963.90  1969.14  1973.02  1974.29
   
       mode:    217      218      219      220      221      222
  temp. (K):  1978.74  1981.89  1995.55  1999.47  2007.01  2009.48
   
       mode:    223      224      225      226      227      228
  temp. (K):  2013.29  2015.45  2017.36  2019.03  2023.57  2024.86
   
       mode:    229      230      231      232      233      234
  temp. (K):  2026.95  2044.37  2046.03  2049.83  2050.34  2074.28
   
       mode:    235      236      237      238      239      240
  temp. (K):  2075.25  2079.83  2099.21  2124.01  2128.47  2156.77
   
       mode:    241      242      243      244      245      246
  temp. (K):  2159.30  2161.11  2161.92  2168.49  2170.91  2173.89
   
       mode:    247      248      249      250      251      252
  temp. (K):  2174.90  2175.71  2176.89  2179.62  2181.20  2183.50
   
       mode:    253      254      255      256      257      258
  temp. (K):  2183.96  2185.73  2186.34  2189.06  2189.90  2189.95
   
       mode:    259      260      261      262      263      264
  temp. (K):  2193.35  2197.44  2197.87  2202.37  2202.94  2204.52
   
       mode:    265      266      267      268      269      270
  temp. (K):  2205.63  2207.12  2212.18  2215.36  2217.39  2222.05
   
       mode:    271      272      273      274      275      276
  temp. (K):  2222.63  2308.00  2350.06  2358.32  2364.95  2369.33
   
       mode:    277      278      279      280      281      282
  temp. (K):  2377.38  2400.28  2402.08  4347.30  4354.96  4356.48
   
       mode:    283      284      285      286      287      288
  temp. (K):  4357.29  4358.08  4362.25  4364.95  4367.90  4375.83
   
       mode:    289      290      291      292      293      294
  temp. (K):  4375.87  4378.43  4381.80  4382.13  4384.13  4386.81
   
       mode:    295      296      297      298      299      300
  temp. (K):  4387.18  4395.98  4402.82  4416.75  4421.68  4435.32
   
       mode:    301      302      303      304      305      306
  temp. (K):  4436.27  4439.02  4440.25  4441.73  4446.09  4447.76
   
       mode:    307      308      309      310      311      312
  temp. (K):  4450.29  4451.60  4456.63  4459.14  4474.80  4482.14
   
       mode:    313      314      315      316      317      318
  temp. (K):  4483.50  4483.62  4483.75  4491.77  4493.06  4496.51
   
       mode:    319      320      321      322      323      324
  temp. (K):  4501.53  4504.10  4508.95  4512.62  4518.31  4524.58
   
       mode:    325      326      327      328      329      330
  temp. (K):  4532.36  4539.13  4543.83  4554.12  4556.16  4560.19
   
       mode:    331      332      333      334      335      336
  temp. (K):  4575.61  4584.38  4595.54  4598.63  4606.96  4621.85
   
       mode:    337      338      339      340      341      342
  temp. (K):  4625.32  4629.49  4630.15  4633.74  4651.69  5033.11
   
   
  Thermodynamic properties calculated assuming an ideal gas

  In the table below, the units for temperature
  are kelvins, the units for U, H, and G are
  kcal/mol and the units for Cv and S are cal/(mol K)

  The zero point energy (ZPE):    636.798 kcal/mol
  is not included in U, H, or G in the table below
  
 
  =============================================================================
  Thermodynamic properties for P = 1.00E+00 atm, calculated at   1 temperatures


  T =   298.15 K, P = 1.00E+00 atm
   
                  U         Cv          S          H          G        ln(Q)
              =========  =========  =========  =========  =========  =========
  trans.          0.889      2.981     46.024      1.481    -12.241   20.66011
  rot.            0.889      2.981     38.994      0.889    -10.737   18.12251
  vib.           31.515    206.541    192.725     31.515    -25.946   43.79141
  elec.           0.000      0.000      0.000      0.000      0.000    0.00000
  ----------------------------------------------------------------------------
  total          33.293    212.503    277.743     33.885    -48.924   82.57403
   
   Total internal energy, Utot(SCFE + ZPE + U):   -2600.443558 hartrees
   Total enthalpy, Htot (Utot + nRT), with n=1:   -2600.442614 hartrees
    Total Gibbs free energy, Gtot (Htot - T*S):   -2600.574579 hartrees
   
  end of program freq
   
 Time(freq)  user:       0.533  user+sys:       0.533  wallclock:       0.684
  
  start of program post
  
  Writing input files for PBF
  end of program post
   
 Time(post)  user:       0.246  user+sys:       0.246  wallclock:       0.175

 Total cpu seconds     user:  269340.310   user+sys:  269340.310
  
 Total elapsed time:    154257 seconds

Job red_elim_N_trans_L1_PL344 completed on bp1-compute055.data.bp.acrc.priv at Sat Apr  5 10:41:13 2025
