Job red_elim_Ar_trans_L1_PL344 started on bp1-compute130.data.bp.acrc.priv at Thu Apr 10 14:06:24 2025
jobid: bp1-compute130-0-67f7c23f

  +--------------------------------------------------------------------+
  |  Jaguar version 12.5, release 138                                  |
  |                                                                    |
  |  Copyright Schrodinger, Inc.                                       |
  |  All Rights Reserved.                                              |
  |                                                                    |
  |  The following have contributed to Jaguar (listed alphabetically): |
  |  Ty Balduf, Mike Beachy, Chandler Bennett, Art Bochevarov,         |
  |  Dale Braden, Yixiang Cao, Alan Chien, Chris Cortis,               |
  |  Rich Friesner, Jim Furness, Bill Goddard, Hod Greeley,            |
  |  Tom Hughes, Leif Jacobson, Jean-Marc Langlois, Daniel Levine,     |
  |  Rob Murphy, Dean Philipp, Tom Pollard, Murco Ringnalda,           |
  |  Daniel Mainz, Pablo Videla, Mark Watson, Haoyu Yu.                |
  |                                                                    |
  |  Use of this program should be acknowledged in publications as:    |
  |                                                                    |
  |  Jaguar, version 12.5, Schrodinger, Inc., New York, NY, 2024.      |
  |                                                                    |
  |  A. D. Bochevarov, E. Harder, T. F. Hughes, J. R. Greenwood,       |
  |  D. A. Braden, D. M. Philipp, D. Rinaldo, M. D. Halls,             |
  |  J. Zhang, R. A. Friesner, "Jaguar: A High-Performance Quantum     |
  |  Chemistry Software Program with Strengths in Life and Materials   |
  |  Sciences", Int. J. Quantum Chem., 2013, 113(18), 2110-2142.       |
  +--------------------------------------------------------------------+
  
  start of program pre
  
  Job name: red_elim_Ar_trans_L1_PL344
  Executables used: /software/local/apps/schrodinger2024-3/jaguar-v12.5/bin/Linux-x86_64
  Temporary files : /tmp/ar21627/red_elim_Ar_trans_L1_PL344#bp1-compute130-0-67f7c23f
  Basis file : using default basis file from /software/local/apps/schrodinger2024-3
  Maestro file (input):  red_elim_Ar_trans_L1_PL344.mae
  Maestro file (output): red_elim_Ar_trans_L1_PL344.01.mae
  
 Contents of input file: &gen and (if present) &atomic sections only
 ----------------Contents start----------------
&gen
dftname=b3pw91-d3
basis=6-31G*
numd=5
ip11=2
iaccg=3
isolv=2
igeopt=1
solvent=benzene
ifreq=1
&
&atomic
atom basis
Pd2 lacv3p*
&
 -----------------Contents end-----------------
 
  PS calculation requested. Using PS version of 6-31g*
  basis set:               non_standard                    
  net molecular charge:    0
  multiplicity:            1
  
  Using up to   4 threads per process
  
  This run will use ECP on 1 atom
  number of basis functions....          889
  
 Input geometry:
                                   angstroms
  atom               x                 y                 z
  P1            0.0000000000      0.0000000000      0.0000000000 
  Pd2           0.0000000000      0.0000000000      2.3082054643 
  N2           -0.1125547602     -0.1389935533      4.2821546393 
  C17           2.7759322302      3.9482441443      2.4728587299 
  C18           3.3409391329      2.6695467611      2.4268368548 
  C19           2.5435065083      1.5232956172      2.3585086104 
  C20           1.1491674100      1.6297367272      2.3361678490 
  C21           0.5734977439      2.9050907536      2.3892643642 
  C22           1.3788539365      4.0436200230      2.4562393944 
  F10           3.5349420456      5.0431562840      2.5171363382 
  H24           4.4255798245      2.5621401231      2.4507953686 
  H25           3.0200966317      0.5456595521      2.3388949646 
  H26          -0.5083839221      3.0182420342      2.3924677039 
  H27           0.9092146061      5.0265778501      2.5037733082 
  H15          -1.0289206785      0.2204809563      4.7731246798 
  C16           3.2945034921      0.9475389387      6.6094358907 
  C23           2.1738939473      1.7933129479      6.5675452784 
  C24           1.0523716728      1.4356523883      5.8014597990 
  C25           1.0514589331      0.2322178074      5.0772649521 
  C26           2.1719886230     -0.6135816707      5.1191010253 
  C27           3.2935907525     -0.2558956422      5.8852410438 
  H22           4.1755912021      1.2285233993      7.2112861547 
  H23           2.1747338902      2.7387665555      7.1365543911 
  H28           0.1720440458      2.1000960604      5.7685641186 
  H29           2.1711825182     -1.5589255699      4.5501744900 
  H30           4.1739183717     -0.9203393239      5.9181367401 
  C3            1.7300610000      0.0000000000     -0.6757070000 
  C4            2.3683310000     -1.3786470000     -0.9527850000 
  C5            3.6839660000     -1.2353690000     -1.7327820000 
  C6            4.6878420000     -0.3819010000     -0.9461730000 
  C7            4.0786400000      0.9798580000     -0.5868500000 
  C8            2.7482580000      0.8044910000      0.1612460000 
  C9           -0.8180240000      1.4096690000     -0.6917300000 
  C10          -2.2927740000      1.4539250000     -0.2588000000 
  C11          -3.0649390000      2.6131910000     -0.9019730000 
  C12          -2.3959200000      3.9537300000     -0.5771470000 
  C13          -0.9361930000      3.9384250000     -1.0456500000 
  C14          -0.1619940000      2.7737060000     -0.4106920000 
  C15          -0.9407660000     -1.3859480000     -0.6815250000 
  C40          -1.6738125872     -2.3161384009      0.1141116587 
  C41          -2.5134174674     -3.2605751516     -0.5240955105 
  C42          -2.6173510128     -3.2340257141     -1.9234076241 
  C43          -1.9183950075     -2.3015299328     -2.6901990567 
  C44          -1.0735400134     -1.3571029430     -2.0903289547 
  C45          -1.6173562052     -2.3803924065      1.5383804198 
  C46          -2.7097877312     -1.9094792274      2.3328230168 
  C47          -2.6332593259     -1.9776224076      3.7367162723 
  C48          -1.5323793991     -2.4998835426      4.4215486242 
  C49          -0.4834933927     -2.9751426397      3.6298823587 
  C50          -0.4959410722     -2.9302975633      2.2233286354 
  C51           0.6597165394     -3.6503670691      1.5432455634 
  C28           0.4111849899     -5.1687471161      1.6369697773 
  C29           2.0520753415     -3.3232316462      2.1205782138 
  C30          -5.2764701539     -1.8544202661      2.2728574508 
  C31          -3.9580805555     -1.2021048488      1.8051498680 
  C32          -3.9793205492      0.2780220728      2.2452926512 
  C33          -1.4362255010     -4.0146042161      6.4272592594 
  C34          -1.4885595395     -2.5593439017      5.9346712514 
  C35          -0.3107842456     -1.7396633680      6.4865529699 
  O36          -0.4225270217     -0.4247376911     -2.8440797967 
  C37          -0.3948513675     -0.3896798114     -4.2552232135 
  O38          -3.1425212944     -4.2311405531      0.2038031613 
  C39          -3.8201344277     -5.3387864864     -0.3554691446 
  H40           1.6344330000      0.5420470000     -1.6433500000 
  H41           1.6814530000     -2.0423920000     -1.5239010000 
  H42           2.5802080000     -1.9043560000      0.0047220000 
  H43           4.1212220000     -2.2431430000     -1.9335920000 
  H44           3.4816040000     -0.7640100000     -2.7240900000 
  H45           5.6210130000     -0.2397150000     -1.5425970000 
  H46           4.9748910000     -0.9171950000     -0.0096740000 
  H47           4.7964410000      1.5609340000      0.0409890000 
  H48           3.9073530000      1.5709840000     -1.5179420000 
  H49           2.3481220000      1.8072140000      0.4333270000 
  H50           2.9401670000      0.2834650000      1.1268150000 
  H51          -0.7997930000      1.2640200000     -1.7961970000 
  H52          -2.3371980000      1.5493870000      0.8518520000 
  H53          -2.7961720000      0.4982840000     -0.5365800000 
  H54          -3.1011620000      2.4693480000     -2.0082010000 
  H55          -4.1204230000      2.6175750000     -0.5372480000 
  H56          -2.4356110000      4.1371990000      0.5230460000 
  H57          -2.9491600000      4.7878510000     -1.0721710000 
  H58          -0.9047120000      3.8440790000     -2.1575050000 
  H59          -0.4455580000      4.9074950000     -0.7861250000 
  H60          -0.0908130000      2.9280340000      0.6918250000 
  H61           0.8719580000      2.7918690000     -0.8252090000 
  H62          -3.2516120760     -3.9563310413     -2.4611165482 
  H63          -2.0569832094     -2.3305787981     -3.7826179339 
  H64          -3.4628719227     -1.5951733762      4.3492819409 
  H65           0.3683605404     -3.4233840986      4.1587189205 
  H66           0.6619608496     -3.4545333448      0.4518470850 
  H67           0.3973772249     -5.5217594052      2.6934197610 
  H68          -0.5673128590     -5.4437891920      1.1783759355 
  H69           1.2040407121     -5.7424013396      1.1030713023 
  H70           2.2199262441     -3.7634442479      3.1283586141 
  H71           2.8607204490     -3.7399521189      1.4784284700 
  H72           2.2093754295     -2.2252668878      2.2097788247 
  H73          -5.4892537843     -1.6636343975      3.3485871750 
  H74          -6.1439797118     -1.4553315805      1.6981876388 
  H75          -5.2674518551     -2.9584909057      2.1496987963 
  H76          -3.9553691014     -1.1528827153      0.6935616443 
  H77          -4.0937450956      0.3976544812      3.3461014525 
  H78          -4.8233131173      0.8289149816      1.7689715750 
  H79          -3.0408642423      0.8011361576      1.9625162942 
  H80          -0.5027672483     -4.5291777710      6.1048656300 
  H81          -2.3002706521     -4.5981600894      6.0333885180 
  H82          -1.4756133278     -4.0629952412      7.5399413553 
  H83          -2.4246072888     -2.1058752121      6.3427813636 
  H84           0.6717601767     -2.1578518002      6.1707272456 
  H85          -0.3616079404     -0.6840915135      6.1323374882 
  H86          -0.3216982015     -1.7224125530      7.6008021411 
  H87           0.2662325470      0.4570177668     -4.5473824852 
  H88          -1.4248372171     -0.2050876112     -4.6362133438 
  H89           0.0354341860     -1.3447297159     -4.6338480700 
  H90          -4.1280411365     -6.0032803575      0.4824275867 
  H91          -4.7246548741     -4.9759584177     -0.8946163398 
  H92          -3.1227742304     -5.8966496108     -1.0211133810 
   
  principal moments of inertia:
        amu*angstrom^2:              8106.11100              9233.28181             11950.82459
                g*cm^2:          1.34605123E-36          1.53322233E-36          1.98448086E-36
   
  rotational constants:
               cm^(-1):      0.00207962      0.00182575      0.00141058
                   GHz:      0.06234543      0.05473449      0.04228821
   
  Molecular weight:     829.36 amu
   
  Stoichiometry: PdC47PNH63O2F
  Molecular Point Group: C1      
  Point Group used: C1
  
 
Number of optimization coordinates:   397
Number of independent coordinates:    397
Number of non-redundant coordinates:  342
Number of frozen coordinates:           0
Number of harmonic constraints:         0
 
Number of geometric degrees of freedom:   342
Maximum geometric degrees of freedom:     342
 " " " " " excluding dummy atoms:         342
 
 
  bond lengths (angstroms):
 
 P1      -Pd2     :   2.308205      P1      -C3      :   1.857334
 P1      -C9      :   1.770542      P1      -C15     :   1.808416
 Pd2     -N2      :   1.982035      Pd2     -C20     :   1.994344
 N2      -H15     :   1.100000      N2      -C25     :   1.457713
 C17     -C18     :   1.398720      C17     -C22     :   1.400429
 C17     -F10     :   1.333000      C18     -C19     :   1.398020
 C18     -H24     :   1.090209      C19     -C20     :   1.398574
 C19     -H25     :   1.087794      C20     -C21     :   1.400265
 C21     -C22     :   1.396185      C21     -H26     :   1.087787
 C22     -H27     :   1.090425      C16     -C23     :   1.404583
 C16     -C27     :   1.404533      C16     -H22     :   1.103400
 C23     -C24     :   1.404500      C23     -H23     :   1.103474
 C24     -C25     :   1.404533      C24     -H28     :   1.103424
 C25     -C26     :   1.404533      C26     -C27     :   1.404600
 C26     -H29     :   1.103337      C27     -H30     :   1.103424
 C3      -C4      :   1.544289      C3      -C8      :   1.544157
 C3      -H40     :   1.113235      C4      -C5      :   1.536170
 C4      -H41     :   1.112894      C4      -H42     :   1.112691
 C5      -C6      :   1.534578      C5      -H43     :   1.116748
 C5      -H44     :   1.116164      C6      -C7      :   1.534480
 C6      -H45     :   1.116578      C6      -H46     :   1.116229
 C7      -C8      :   1.536332      C7      -H47     :   1.116723
 C7      -H48     :   1.116110      C8      -H49     :   1.113369
 C8      -H50     :   1.113832      C9      -C10     :   1.537620
 C9      -C14     :   1.539466      C9      -H51     :   1.114178
 C10     -C11     :   1.534212      C10     -H52     :   1.115632
 C10     -H53     :   1.115267      C11     -C12     :   1.533018
 C11     -H54     :   1.116129      C11     -H55     :   1.116732
 C12     -C13     :   1.533145      C12     -H56     :   1.116092
 C12     -H57     :   1.116638      C13     -C14     :   1.535945
 C13     -H58     :   1.116295      C13     -H59     :   1.116769
 C14     -H60     :   1.115539      C14     -H61     :   1.114096
 C15     -C40     :   1.426762      C15     -C44     :   1.415341
 C40     -C41     :   1.415700      C40     -C45     :   1.426835
 C41     -C42     :   1.403418      C41     -O38     :   1.366604
 C42     -C43     :   1.395011      C42     -H62     :   1.101428
 C43     -C44     :   1.401987      C43     -H63     :   1.101558
 C44     -O36     :   1.364281      C45     -C46     :   1.430491
 C45     -C50     :   1.424472      C46     -C47     :   1.407628
 C46     -C31     :   1.528742      C47     -C48     :   1.397744
 C47     -H64     :   1.099891      C48     -C49     :   1.397415
 C48     -C34     :   1.514924      C49     -C50     :   1.407323
 C49     -H65     :   1.098291      C50     -C51     :   1.522024
 C51     -C28     :   1.541438      C51     -C29     :   1.542399
 C51     -H66     :   1.108831      C28     -H67     :   1.113955
 C28     -H68     :   1.115085      C28     -H69     :   1.114786
 C29     -H70     :   1.112467      C29     -H71     :   1.113517
 C29     -H72     :   1.112756      C30     -C31     :   1.543508
 C30     -H73     :   1.113046      C30     -H74     :   1.114491
 C30     -H75     :   1.110955      C31     -C32     :   1.544329
 C31     -H76     :   1.112681      C32     -H77     :   1.113187
 C32     -H78     :   1.114759      C32     -H79     :   1.110996
 C33     -C34     :   1.537259      C33     -H80     :   1.113583
 C33     -H81     :   1.114561      C33     -H82     :   1.114430
 C34     -C35     :   1.537402      C34     -H83     :   1.117306
 C35     -H84     :   1.113562      C35     -H85     :   1.114578
 C35     -H86     :   1.114436      O36     -C37     :   1.411850
 C37     -H87     :   1.113232      C37     -H88     :   1.113597
 C37     -H89     :   1.113832      O38     -C39     :   1.413798
 C39     -H90     :   1.112848      C39     -H91     :   1.113769
 C39     -H92     :   1.113824
 
  bond angles:
 
 C3      -P1      -Pd2     : 111.334041  C9      -P1      -Pd2     : 112.997327
 C9      -P1      -C3      : 106.751716  C15     -P1      -Pd2     : 112.139500
 C15     -P1      -C3      : 110.332238  C15     -P1      -C9      : 102.861598
 N2      -Pd2     -P1      : 174.822805  C20     -Pd2     -P1      :  90.803361
 C20     -Pd2     -N2      :  94.362366  H15     -N2      -Pd2     : 117.963296
 C25     -N2      -Pd2     : 118.686804  C25     -N2      -H15     : 109.788049
 C22     -C17     -C18     : 117.700487  F10     -C17     -C18     : 121.466051
 F10     -C17     -C22     : 120.829905  C19     -C18     -C17     : 121.382694
 H24     -C18     -C17     : 119.421122  H24     -C18     -C19     : 119.195116
 C20     -C19     -C18     : 120.467804  H25     -C19     -C18     : 119.199658
 H25     -C19     -C20     : 120.325406  C19     -C20     -Pd2     : 120.830445
 C21     -C20     -Pd2     : 120.525671  C21     -C20     -C19     : 118.592816
 C22     -C21     -C20     : 120.490217  H26     -C21     -C20     : 120.247412
 H26     -C21     -C22     : 119.257121  C21     -C22     -C17     : 121.364383
 H27     -C22     -C17     : 119.376002  H27     -C22     -C21     : 119.258140
 C27     -C16     -C23     : 120.002746  H22     -C16     -C23     : 120.000393
 H22     -C16     -C27     : 119.996860  C24     -C23     -C16     : 120.000393
 H23     -C23     -C16     : 119.995826  H23     -C23     -C24     : 120.003781
 C25     -C24     -C23     : 119.996860  H28     -C24     -C23     : 119.999284
 H28     -C24     -C25     : 120.003855  C24     -C25     -N2      : 119.996860
 C26     -C25     -N2      : 119.996860  C26     -C25     -C24     : 120.006279
 C27     -C26     -C25     : 119.996860  H29     -C26     -C25     : 120.001259
 H29     -C26     -C27     : 120.001881  C26     -C27     -C16     : 119.996860
 H30     -C27     -C16     : 120.003855  H30     -C27     -C26     : 119.999284
 C4      -C3      -P1      : 116.760510  C8      -C3      -P1      : 114.646323
 C8      -C3      -C4      : 106.847527  H40     -C3      -P1      : 103.662995
 H40     -C3      -C4      : 108.314501  H40     -C3      -C8      : 105.907946
 C5      -C4      -C3      : 111.211448  H41     -C4      -C3      : 111.679997
 H41     -C4      -C5      : 108.883871  H42     -C4      -C3      : 110.248545
 H42     -C4      -C5      : 108.537431  H42     -C4      -H41     : 106.102112
 C6      -C5      -C4      : 110.601118  H43     -C5      -C4      : 110.027297
 H43     -C5      -C6      : 109.750386  H44     -C5      -C4      : 109.576838
 H44     -C5      -C6      : 109.815095  H44     -C5      -H43     : 107.000444
 C7      -C6      -C5      : 110.724618  H45     -C6      -C5      : 110.104777
 H45     -C6      -C7      : 110.112838  H46     -C6      -C5      : 109.364249
 H46     -C6      -C7      : 109.342233  H46     -C6      -H45     : 107.115239
 C8      -C7      -C6      : 110.886276  H47     -C7      -C6      : 109.769420
 H47     -C7      -C8      : 110.013431  H48     -C7      -C6      : 109.608747
 H48     -C7      -C8      : 109.498195  H48     -C7      -H47     : 106.982164
 C7      -C8      -C3      : 111.502229  H49     -C8      -C3      : 111.388588
 H49     -C8      -C7      : 109.111490  H50     -C8      -C3      : 109.862699
 H50     -C8      -C7      : 109.045316  H50     -C8      -H49     : 105.745522
 C10     -C9      -P1      : 110.857327  C14     -C9      -P1      : 115.928139
 C14     -C9      -C10     : 109.378978  H51     -C9      -P1      : 106.000389
 H51     -C9      -C10     : 107.371173  H51     -C9      -C14     : 106.847078
 C11     -C10     -C9      : 112.732647  H52     -C10     -C9      : 108.720752
 H52     -C10     -C11     : 109.429831  H53     -C10     -C9      : 109.762611
 H53     -C10     -C11     : 108.413472  H53     -C10     -H52     : 107.656261
 C12     -C11     -C10     : 110.626189  H54     -C11     -C10     : 109.539408
 H54     -C11     -C12     : 109.686039  H55     -C11     -C10     : 109.983071
 H55     -C11     -C12     : 109.866913  H55     -C11     -H54     : 107.069708
 C13     -C12     -C11     : 110.000606  H56     -C12     -C11     : 109.699947
 H56     -C12     -C13     : 109.677805  H57     -C12     -C11     : 110.062984
 H57     -C12     -C13     : 110.103242  H57     -C12     -H56     : 107.252736
 C14     -C13     -C12     : 111.171369  H58     -C13     -C12     : 109.393996
 H58     -C13     -C14     : 109.478303  H59     -C13     -C12     : 109.792782
 H59     -C13     -C14     : 109.907327  H59     -C13     -H58     : 107.002557
 C13     -C14     -C9      : 112.434621  H60     -C14     -C9      : 109.280610
 H60     -C14     -C13     : 109.622954  H61     -C14     -C9      : 109.999296
 H61     -C14     -C13     : 107.554917  H61     -C14     -H60     : 107.833293
 C40     -C15     -P1      : 123.832937  C44     -C15     -P1      : 114.098396
 C44     -C15     -C40     : 121.343339  C41     -C40     -C15     : 119.225455
 C45     -C40     -C15     : 124.449485  C45     -C40     -C41     : 116.322323
 C42     -C41     -C40     : 118.736932  O38     -C41     -C40     : 120.443358
 O38     -C41     -C42     : 120.691735  C43     -C42     -C41     : 121.573946
 H62     -C42     -C41     : 121.131545  H62     -C42     -C43     : 117.293272
 C44     -C43     -C42     : 121.133741  H63     -C43     -C42     : 117.674159
 H63     -C43     -C44     : 121.191582  C43     -C44     -C15     : 117.949811
 O36     -C44     -C15     : 121.271958  O36     -C44     -C43     : 120.765950
 C46     -C45     -C40     : 120.618772  C50     -C45     -C40     : 121.905017
 C50     -C45     -C46     : 117.467414  C47     -C46     -C45     : 119.764417
 C31     -C46     -C45     : 125.747183  C31     -C46     -C47     : 114.270544
 C48     -C47     -C46     : 123.337088  H64     -C47     -C46     : 119.842345
 H64     -C47     -C48     : 116.815584  C49     -C48     -C47     : 116.147259
 C34     -C48     -C47     : 121.790863  C34     -C48     -C49     : 122.058730
 C50     -C49     -C48     : 123.280324  H65     -C49     -C48     : 116.627553
 H65     -C49     -C50     : 120.073501  C49     -C50     -C45     : 119.989746
 C51     -C50     -C45     : 124.439266  C51     -C50     -C49     : 115.137511
 C28     -C51     -C50     : 108.447251  C29     -C51     -C50     : 114.697965
 C29     -C51     -C28     : 109.372768  H66     -C51     -C50     : 110.964197
 H66     -C51     -C28     : 103.541195  H66     -C51     -C29     : 109.216446
 H67     -C28     -C51     : 111.828064  H68     -C28     -C51     : 111.066057
 H68     -C28     -H67     : 107.517143  H69     -C28     -C51     : 111.290528
 H69     -C28     -H67     : 107.454287  H69     -C28     -H68     : 107.470254
 H70     -C29     -C51     : 113.039231  H71     -C29     -C51     : 111.120614
 H71     -C29     -H70     : 105.352549  H72     -C29     -C51     : 111.523991
 H72     -C29     -H70     : 107.247586  H72     -C29     -H71     : 108.230131
 H73     -C30     -C31     : 112.563474  H74     -C30     -C31     : 110.933396
 H74     -C30     -H73     : 106.747858  H75     -C30     -C31     : 112.301123
 H75     -C30     -H73     : 106.202930  H75     -C30     -H74     : 107.759837
 C30     -C31     -C46     : 113.410265  C32     -C31     -C46     : 110.875326
 C32     -C31     -C30     : 107.874938  H76     -C31     -C46     : 111.303542
 H76     -C31     -C30     : 108.874448  H76     -C31     -C32     : 104.025938
 H77     -C32     -C31     : 112.721430  H78     -C32     -C31     : 111.239696
 H78     -C32     -H77     : 106.953943  H79     -C32     -C31     : 111.538001
 H79     -C32     -H77     : 106.733468  H79     -C32     -H78     : 107.342713
 H80     -C33     -C34     : 111.913632  H81     -C33     -C34     : 110.855877
 H81     -C33     -H80     : 107.793726  H82     -C33     -C34     : 111.089936
 H82     -C33     -H80     : 107.374596  H82     -C33     -H81     : 107.619723
 C33     -C34     -C48     : 110.989231  C35     -C34     -C48     : 111.086461
 C35     -C34     -C33     : 111.322334  H83     -C34     -C48     : 108.945303
 H83     -C34     -C33     : 107.198855  H83     -C34     -C35     : 107.115307
 H84     -C35     -C34     : 111.957177  H85     -C35     -C34     : 110.849828
 H85     -C35     -H84     : 107.803871  H86     -C35     -C34     : 111.079362
 H86     -C35     -H84     : 107.338962  H86     -C35     -H85     : 107.616392
 C37     -O36     -C44     : 125.347685  H87     -C37     -O36     : 107.027922
 H88     -C37     -O36     : 109.143780  H88     -C37     -H87     : 109.474790
 H89     -C37     -O36     : 109.028651  H89     -C37     -H87     : 109.483317
 H89     -C37     -H88     : 112.528252  C39     -O38     -C41     : 124.495828
 H90     -C39     -O38     : 107.612303  H91     -C39     -O38     : 108.996383
 H91     -C39     -H90     : 109.529437  H92     -C39     -O38     : 109.191410
 H92     -C39     -H90     : 108.912965  H92     -C39     -H91     : 112.478480
 
  torsional angles:
 
 P1      -Pd2     -N2      -H15     : -74.978888
 P1      -Pd2     -N2      -C25     : 148.351031
 P1      -Pd2     -C20     -C19     : -90.586464
 P1      -Pd2     -C20     -C21     :  92.049113
 P1      -C3      -C4      -C5      : 169.923669
 P1      -C3      -C4      -H41     :  48.060819
 P1      -C3      -C4      -H42     : -69.634716
 P1      -C3      -C8      -C7      :-169.287675
 P1      -C3      -C8      -H49     : -47.131717
 P1      -C3      -C8      -H50     :  69.699520
 P1      -C9      -C10     -C11     :-176.567334
 P1      -C9      -C10     -H52     :  61.912220
 P1      -C9      -C10     -H53     : -55.607106
 P1      -C9      -C14     -C13     :-179.962271
 P1      -C9      -C14     -H60     : -58.000942
 P1      -C9      -C14     -H61     :  60.201212
 P1      -C15     -C40     -C41     : 171.983891
 P1      -C15     -C40     -C45     :  -8.641080
 P1      -C15     -C44     -C43     :-172.587532
 P1      -C15     -C44     -O36     :   6.146929
 Pd2     -P1      -C3      -C4      :  91.075667
 Pd2     -P1      -C3      -C8      : -34.974391
 Pd2     -P1      -C3      -H40     :-149.927766
 Pd2     -P1      -C9      -C10     : -60.723470
 Pd2     -P1      -C9      -C14     :  64.731663
 Pd2     -P1      -C9      -H51     :-176.931342
 Pd2     -P1      -C15     -C40     :   4.069141
 Pd2     -P1      -C15     -C44     : 174.400874
 Pd2     -N2      -C25     -C24     : 106.312675
 Pd2     -N2      -C25     -C26     : -73.687327
 Pd2     -C20     -C19     -C18     :-177.677437
 Pd2     -C20     -C19     -H25     :   1.343357
 Pd2     -C20     -C21     -C22     : 177.739254
 Pd2     -C20     -C21     -H26     :  -1.421133
 N2      -Pd2     -P1      -C3      :-129.000000
 N2      -Pd2     -P1      -C9      : 110.873617
 N2      -Pd2     -P1      -C15     :  -4.831778
 N2      -Pd2     -C20     -C19     :  89.758208
 N2      -Pd2     -C20     -C21     : -87.606214
 N2      -C25     -C24     -C23     : 179.999998
 N2      -C25     -C24     -H28     :  -0.000001
 N2      -C25     -C26     -C27     :-179.999998
 N2      -C25     -C26     -H29     :   0.000001
 C17     -C18     -C19     -C20     :  -0.085567
 C17     -C18     -C19     -H25     :-179.117303
 C17     -C22     -C21     -C20     :  -0.023898
 C17     -C22     -C21     -H26     : 179.144744
 C18     -C17     -C22     -C21     :  -0.318521
 C18     -C17     -C22     -H27     : 179.236263
 C18     -C19     -C20     -C21     :  -0.263028
 C19     -C18     -C17     -C22     :   0.372937
 C19     -C18     -C17     -F10     :-178.946312
 C19     -C20     -C21     -C22     :   0.316693
 C19     -C20     -C21     -H26     :-178.843694
 C20     -Pd2     -P1      -C3      :  54.811396
 C20     -Pd2     -P1      -C9      : -65.314987
 C20     -Pd2     -P1      -C15     : 178.979618
 C20     -Pd2     -N2      -H15     : 101.199002
 C20     -Pd2     -N2      -C25     : -35.471079
 C20     -C19     -C18     -H24     : 179.536272
 C20     -C21     -C22     -H27     :-179.579196
 C21     -C20     -C19     -H25     : 178.757766
 C21     -C22     -C17     -F10     : 179.005281
 C22     -C17     -C18     -H24     :-179.248064
 F10     -C17     -C18     -H24     :   1.432687
 F10     -C17     -C22     -H27     :  -1.439936
 H24     -C18     -C19     -H25     :   0.504536
 H26     -C21     -C22     -H27     :  -0.410554
 H15     -N2      -C25     -C24     : -33.587775
 H15     -N2      -C25     -C26     : 146.412224
 C16     -C23     -C24     -C25     :   0.000001
 C16     -C23     -C24     -H28     :-179.999999
 C16     -C27     -C26     -C25     :   0.000000
 C16     -C27     -C26     -H29     :-179.999999
 C23     -C16     -C27     -C26     :   0.000000
 C23     -C16     -C27     -H30     :-179.999999
 C23     -C24     -C25     -C26     :  -0.000001
 C24     -C23     -C16     -C27     :  -0.000001
 C24     -C23     -C16     -H22     : 179.999999
 C24     -C25     -C26     -C27     :   0.000000
 C24     -C25     -C26     -H29     : 179.999999
 C25     -C24     -C23     -H23     : 179.999999
 C25     -C26     -C27     -H30     : 180.000000
 C26     -C25     -C24     -H28     :-179.999999
 C26     -C27     -C16     -H22     :-179.999999
 C27     -C16     -C23     -H23     :-179.999999
 H22     -C16     -C23     -H23     :   0.000001
 H22     -C16     -C27     -H30     :   0.000002
 H23     -C23     -C24     -H28     :  -0.000002
 H29     -C26     -C27     -H30     :  -0.000001
 C3      -P1      -C9      -C10     : 176.560205
 C3      -P1      -C9      -C14     : -57.984661
 C3      -P1      -C9      -H51     :  60.352333
 C3      -P1      -C15     -C40     : 128.793160
 C3      -P1      -C15     -C44     : -60.875107
 C3      -C4      -C5      -C6      :  59.308658
 C3      -C4      -C5      -H43     :-179.274375
 C3      -C4      -C5      -H44     : -61.892393
 C3      -C8      -C7      -C6      : -58.192460
 C3      -C8      -C7      -H47     :-179.812198
 C3      -C8      -C7      -H48     :  62.882889
 C4      -C3      -P1      -C9      :-145.173781
 C4      -C3      -P1      -C15     : -34.107767
 C4      -C3      -C8      -C7      :  59.675156
 C4      -C3      -C8      -H49     :-178.168885
 C4      -C3      -C8      -H50     : -61.337649
 C4      -C5      -C6      -C7      : -55.119754
 C4      -C5      -C6      -H45     :-177.126106
 C4      -C5      -C6      -H46     :  65.433232
 C5      -C4      -C3      -C8      : -60.233288
 C5      -C4      -C3      -H40     :  53.463667
 C5      -C6      -C7      -C8      :  54.573566
 C5      -C6      -C7      -H47     : 176.336307
 C5      -C6      -C7      -H48     : -66.436546
 C6      -C5      -C4      -H41     :-177.216787
 C6      -C5      -C4      -H42     : -62.137696
 C6      -C7      -C8      -H49     : 178.348316
 C6      -C7      -C8      -H50     :  63.296121
 C7      -C6      -C5      -H43     :-176.700207
 C7      -C6      -C5      -H44     :  65.940081
 C7      -C8      -C3      -H40     : -55.646904
 C8      -C3      -P1      -C9      :  88.776161
 C8      -C3      -P1      -C15     :-160.157826
 C8      -C3      -C4      -H41     : 177.903862
 C8      -C3      -C4      -H42     :  60.208326
 C8      -C7      -C6      -H45     : 176.575196
 C8      -C7      -C6      -H46     : -65.992517
 C9      -P1      -C3      -H40     : -26.177214
 C9      -P1      -C15     -C40     :-117.635352
 C9      -P1      -C15     -C44     :  52.696382
 C9      -C10     -C11     -C12     : -57.021071
 C9      -C10     -C11     -H54     :  64.010740
 C9      -C10     -C11     -H55     :-178.571318
 C9      -C14     -C13     -C12     :  56.244359
 C9      -C14     -C13     -H58     : -64.733025
 C9      -C14     -C13     -H59     : 178.011177
 C10     -C9      -P1      -C15     :  60.397225
 C10     -C9      -C14     -C13     : -53.757089
 C10     -C9      -C14     -H60     :  68.204241
 C10     -C9      -C14     -H61     :-173.593606
 C10     -C11     -C12     -C13     :  56.989562
 C10     -C11     -C12     -H56     : -63.737169
 C10     -C11     -C12     -H57     : 178.478605
 C11     -C10     -C9      -C14     :  54.380734
 C11     -C10     -C9      -H51     : -61.210102
 C11     -C12     -C13     -C14     : -56.858653
 C11     -C12     -C13     -H58     :  64.168238
 C11     -C12     -C13     -H59     :-178.692164
 C12     -C11     -C10     -H52     :  64.096393
 C12     -C11     -C10     -H53     :-178.747869
 C12     -C13     -C14     -H60     : -65.522455
 C12     -C13     -C14     -H61     : 177.489555
 C13     -C12     -C11     -H54     : -63.955251
 C13     -C12     -C11     -H55     : 178.608293
 C13     -C14     -C9      -H51     :  62.168088
 C14     -C9      -P1      -C15     :-174.147642
 C14     -C9      -C10     -H52     : -67.139713
 C14     -C9      -C10     -H53     : 175.340961
 C14     -C13     -C12     -H56     :  63.881404
 C14     -C13     -C12     -H57     :-178.323655
 C15     -P1      -C3      -H40     :  84.888800
 C15     -P1      -C9      -H51     : -55.810647
 C15     -C40     -C41     -C42     :  -1.211674
 C15     -C40     -C41     -O38     : 174.704477
 C15     -C40     -C45     -C46     : 106.312724
 C15     -C40     -C45     -C50     : -74.793750
 C15     -C44     -C43     -C42     :   0.582654
 C15     -C44     -C43     -H63     :-179.685155
 C15     -C44     -O36     -C37     : 173.920676
 C40     -C15     -C44     -C43     :  -1.988453
 C40     -C15     -C44     -O36     : 176.746008
 C40     -C41     -C42     -C43     :  -0.160242
 C40     -C41     -C42     -H62     : 179.424135
 C40     -C41     -O38     -C39     :-169.338857
 C40     -C45     -C46     -C47     :-179.803181
 C40     -C45     -C46     -C31     :  -5.486577
 C40     -C45     -C50     -C49     :-179.918040
 C40     -C45     -C50     -C51     :  -7.851630
 C41     -C40     -C15     -C44     :   2.324640
 C41     -C40     -C45     -C46     : -74.295785
 C41     -C40     -C45     -C50     : 104.597740
 C41     -C42     -C43     -C44     :   0.485811
 C41     -C42     -C43     -H63     :-179.255501
 C41     -O38     -C39     -H90     : 173.917434
 C41     -O38     -C39     -H91     : -67.382869
 C41     -O38     -C39     -H92     :  55.845501
 C42     -C41     -C40     -C45     : 179.363309
 C42     -C41     -O38     -C39     :   6.496845
 C42     -C43     -C44     -O36     :-178.158510
 C43     -C42     -C41     -O38     :-176.065905
 C43     -C44     -O36     -C37     :  -7.380356
 C44     -C15     -C40     -C45     :-178.300331
 C44     -C43     -C42     -H62     :-179.113854
 C44     -O36     -C37     -H87     :-176.871282
 C44     -O36     -C37     -H88     :  64.743069
 C44     -O36     -C37     -H89     : -58.537095
 C45     -C40     -C41     -O38     :  -4.720540
 C45     -C46     -C47     -C48     :  -0.533899
 C45     -C46     -C47     -H64     : 178.627488
 C45     -C46     -C31     -C30     : 127.107180
 C45     -C46     -C31     -C32     :-111.353379
 C45     -C46     -C31     -H76     :   3.932119
 C45     -C50     -C49     -C48     :  -0.025920
 C45     -C50     -C49     -H65     : 178.350264
 C45     -C50     -C51     -C28     : -97.611058
 C45     -C50     -C51     -C29     : 139.820877
 C45     -C50     -C51     -H66     :  15.476161
 C46     -C45     -C50     -C49     :  -0.991216
 C46     -C45     -C50     -C51     : 171.075193
 C46     -C47     -C48     -C49     :  -0.479812
 C46     -C47     -C48     -C34     :-179.846713
 C46     -C31     -C30     -H73     :  72.797348
 C46     -C31     -C30     -H74     :-167.661808
 C46     -C31     -C30     -H75     : -47.005828
 C46     -C31     -C32     -H77     : -66.380744
 C46     -C31     -C32     -H78     : 173.491349
 C46     -C31     -C32     -H79     :  53.675279
 C47     -C46     -C45     -C50     :   1.255466
 C47     -C46     -C31     -C30     : -58.303934
 C47     -C46     -C31     -C32     :  63.235507
 C47     -C46     -C31     -H76     : 178.521005
 C47     -C48     -C49     -C50     :   0.764190
 C47     -C48     -C49     -H65     :-177.663878
 C47     -C48     -C34     -C33     : 116.075623
 C47     -C48     -C34     -C35     :-119.498530
 C47     -C48     -C34     -H83     :  -1.733846
 C48     -C47     -C46     -C31     :-175.475746
 C48     -C49     -C50     -C51     :-172.802318
 C48     -C34     -C33     -H80     :  63.944766
 C48     -C34     -C33     -H81     : -56.435995
 C48     -C34     -C33     -H82     :-176.046948
 C48     -C34     -C35     -H84     : -64.132907
 C48     -C34     -C35     -H85     :  56.286118
 C48     -C34     -C35     -H86     : 175.881942
 C49     -C48     -C47     -H64     :-179.664753
 C49     -C48     -C34     -C33     : -63.253806
 C49     -C48     -C34     -C35     :  61.172040
 C49     -C48     -C34     -H83     : 178.936725
 C49     -C50     -C51     -C28     :  74.800742
 C49     -C50     -C51     -C29     : -47.767323
 C49     -C50     -C51     -H66     :-172.112039
 C50     -C45     -C46     -C31     : 175.572070
 C50     -C49     -C48     -C34     :-179.870756
 C50     -C51     -C28     -H67     : -62.918265
 C50     -C51     -C28     -H68     :  57.197085
 C50     -C51     -C28     -H69     : 176.891982
 C50     -C51     -C29     -H70     :  71.409840
 C50     -C51     -C29     -H71     :-170.380230
 C50     -C51     -C29     -H72     : -49.526381
 C51     -C50     -C49     -H65     :   5.573866
 C28     -C51     -C29     -H70     : -50.657022
 C28     -C51     -C29     -H71     :  67.552907
 C28     -C51     -C29     -H72     :-171.593244
 C29     -C51     -C28     -H67     :  62.827879
 C29     -C51     -C28     -H68     :-177.056771
 C29     -C51     -C28     -H69     : -57.361874
 C30     -C31     -C32     -H77     :  58.354625
 C30     -C31     -C32     -H78     : -61.773282
 C30     -C31     -C32     -H79     : 178.410648
 C31     -C46     -C47     -H64     :   3.685641
 C32     -C31     -C30     -H73     : -50.406801
 C32     -C31     -C30     -H74     :  69.134043
 C32     -C31     -C30     -H75     :-170.209977
 C33     -C34     -C35     -H84     :  60.104192
 C33     -C34     -C35     -H85     :-179.476782
 C33     -C34     -C35     -H86     : -59.880958
 C34     -C48     -C47     -H64     :   0.968346
 C34     -C48     -C49     -H65     :   1.701176
 C35     -C34     -C33     -H80     : -60.347228
 C35     -C34     -C33     -H81     : 179.272011
 C35     -C34     -C33     -H82     :  59.661058
 O36     -C44     -C43     -H63     :   1.573680
 O38     -C41     -C42     -H62     :   3.518472
 H40     -C3      -C4      -H41     : -68.399183
 H40     -C3      -C4      -H42     : 173.905282
 H40     -C3      -C8      -H49     :  66.509054
 H40     -C3      -C8      -H50     :-176.659709
 H41     -C4      -C5      -H43     : -55.799821
 H41     -C4      -C5      -H44     :  61.582161
 H42     -C4      -C5      -H43     :  59.279271
 H42     -C4      -C5      -H44     : 176.661253
 H43     -C5      -C6      -H45     :  61.293441
 H43     -C5      -C6      -H46     : -56.147221
 H44     -C5      -C6      -H45     : -56.066271
 H44     -C5      -C6      -H46     :-173.506933
 H45     -C6      -C7      -H47     : -61.662063
 H45     -C6      -C7      -H48     :  55.565084
 H46     -C6      -C7      -H47     :  55.770224
 H46     -C6      -C7      -H48     : 172.997372
 H47     -C7      -C8      -H49     :  56.728577
 H47     -C7      -C8      -H50     : -58.323618
 H48     -C7      -C8      -H49     : -60.576336
 H48     -C7      -C8      -H50     :-175.628531
 H51     -C9      -C10     -H52     : 177.269451
 H51     -C9      -C10     -H53     :  59.750125
 H51     -C9      -C14     -H60     :-175.870582
 H51     -C9      -C14     -H61     : -57.668429
 H52     -C10     -C11     -H54     :-174.871796
 H52     -C10     -C11     -H55     : -57.453854
 H53     -C10     -C11     -H54     : -57.716058
 H53     -C10     -C11     -H55     :  59.701883
 H54     -C11     -C12     -H56     : 175.318019
 H54     -C11     -C12     -H57     :  57.533792
 H55     -C11     -C12     -H56     :  57.881563
 H55     -C11     -C12     -H57     : -59.902664
 H56     -C12     -C13     -H58     :-175.091706
 H56     -C12     -C13     -H59     : -57.952107
 H57     -C12     -C13     -H58     : -57.296765
 H57     -C12     -C13     -H59     :  59.842834
 H58     -C13     -C14     -H60     : 173.500161
 H58     -C13     -C14     -H61     :  56.512171
 H59     -C13     -C14     -H60     :  56.244363
 H59     -C13     -C14     -H61     : -60.743627
 H62     -C42     -C43     -H63     :   1.144834
 H66     -C51     -C28     -H67     : 179.158608
 H66     -C51     -C28     -H68     : -60.726042
 H66     -C51     -C28     -H69     :  58.968856
 H66     -C51     -C29     -H70     :-163.325785
 H66     -C51     -C29     -H71     : -45.115856
 H66     -C51     -C29     -H72     :  75.737993
 H73     -C30     -C31     -H76     :-162.702274
 H74     -C30     -C31     -H76     : -43.161430
 H75     -C30     -C31     -H76     :  77.494550
 H76     -C31     -C32     -H77     : 173.880183
 H76     -C31     -C32     -H78     :  53.752275
 H76     -C31     -C32     -H79     : -66.063794
 H80     -C33     -C34     -H83     :-177.188994
 H81     -C33     -C34     -H83     :  62.430244
 H82     -C33     -C34     -H83     : -57.180708
 H83     -C34     -C35     -H84     : 176.996873
 H83     -C34     -C35     -H85     : -62.584102
 H83     -C34     -C35     -H86     :  57.011722
 
  nuclear repulsion energy.......          9091.369455695 hartrees
  
  Detected an organometallic with only one TM atom. 
  
  Oxidation state on metal       2 is     2
  Formal multiplet on metal      2 is     1
  Formal charge on ligand        3 is    -1
  Formal multiplet on ligand     3 is     1
  Formal charge on ligand        4 is    -1
  Formal multiplet on ligand     4 is     1
  
 
  Will use High-Quality Initial guess for organometallics
       including d-d repulsion (iguess=30)
 
 Non-default options chosen:
   SCF calculation type: DFT(b3pw91-d3)              
   DFT=Becke_3_Parameter/HF+Slater+Becke88+PW91+PW-GGAIIC (B3PW91-D3)
   Geometry will be optimized in redundant internal coordinates
   Solvation energy will be computed using PBF
     -solute cavity energy will not be included
     -surface area terms will not be included
   Vibrational frequencies and related properties will be computed
      from analytic second derivatives
   IR intensities will be computed
   Thermochemical properties will be computed
   Maximum number of geometry steps: 100
   Scaling standard convergence criteria by a factor of   5.00
   Solvent: benzene                                                         
   Internal dielectric constant:    1.000
   Continuum dielectric constant:   2.283
   Solvent probe molecule radius:   2.600
  
 Non-default print settings:
     11=  2
  
 Temporary integer options set:
     21= -1  73=  2
  
  atom       vdw   vdw2    cov     mass  grid  daf  charge   basis
  P1        2.147  2.074  1.060   30.974    Y    Y      Y    ps_6-31g*
  Pd2       1.450  1.450  1.280  105.903    Y    Y      Y    lacv3p*
  N2        1.831  1.600  0.750   14.003    Y    Y      Y    ps_6-31g*
  C17       1.949  1.900  0.770   12.000    Y    Y      Y    ps_6-31g*
  C18       1.949  1.900  0.770   12.000    Y    Y      Y    ps_6-31g*
  C19       1.949  1.900  0.770   12.000    Y    Y      Y    ps_6-31g*
  C20       1.949  1.900  0.770   12.000    Y    Y      Y    ps_6-31g*
  C21       1.949  1.900  0.770   12.000    Y    Y      Y    ps_6-31g*
  C22       1.949  1.900  0.770   12.000    Y    Y      Y    ps_6-31g*
  F10       1.736  1.682  0.720   18.998    Y    Y      Y    ps_6-31g*
  H24       1.597  1.150  0.320    1.008    Y    Y      Y    ps_6-31g*
  H25       1.597  1.150  0.320    1.008    Y    Y      Y    ps_6-31g*
  H26       1.597  1.150  0.320    1.008    Y    Y      Y    ps_6-31g*
  H27       1.597  1.150  0.320    1.008    Y    Y      Y    ps_6-31g*
  H15       1.597  1.150  0.320    1.008    Y    Y      Y    ps_6-31g*
  C16       1.949  1.900  0.770   12.000    Y    Y      Y    ps_6-31g*
  C23       1.949  1.900  0.770   12.000    Y    Y      Y    ps_6-31g*
  C24       1.949  1.900  0.770   12.000    Y    Y      Y    ps_6-31g*
  C25       1.949  1.900  0.770   12.000    Y    Y      Y    ps_6-31g*
  C26       1.949  1.900  0.770   12.000    Y    Y      Y    ps_6-31g*
  C27       1.949  1.900  0.770   12.000    Y    Y      Y    ps_6-31g*
  H22       1.597  1.150  0.320    1.008    Y    Y      Y    ps_6-31g*
  H23       1.597  1.150  0.320    1.008    Y    Y      Y    ps_6-31g*
  H28       1.597  1.150  0.320    1.008    Y    Y      Y    ps_6-31g*
  H29       1.597  1.150  0.320    1.008    Y    Y      Y    ps_6-31g*
  H30       1.597  1.150  0.320    1.008    Y    Y      Y    ps_6-31g*
  C3        1.949  1.900  0.770   12.000    Y    Y      Y    ps_6-31g*
  C4        1.949  1.900  0.770   12.000    Y    Y      Y    ps_6-31g*
  C5        1.949  1.900  0.770   12.000    Y    Y      Y    ps_6-31g*
  C6        1.949  1.900  0.770   12.000    Y    Y      Y    ps_6-31g*
  C7        1.949  1.900  0.770   12.000    Y    Y      Y    ps_6-31g*
  C8        1.949  1.900  0.770   12.000    Y    Y      Y    ps_6-31g*
  C9        1.949  1.900  0.770   12.000    Y    Y      Y    ps_6-31g*
  C10       1.949  1.900  0.770   12.000    Y    Y      Y    ps_6-31g*
  C11       1.949  1.900  0.770   12.000    Y    Y      Y    ps_6-31g*
  C12       1.949  1.900  0.770   12.000    Y    Y      Y    ps_6-31g*
  C13       1.949  1.900  0.770   12.000    Y    Y      Y    ps_6-31g*
  C14       1.949  1.900  0.770   12.000    Y    Y      Y    ps_6-31g*
  C15       1.949  1.900  0.770   12.000    Y    Y      Y    ps_6-31g*
  C40       1.949  1.900  0.770   12.000    Y    Y      Y    ps_6-31g*
  C41       1.949  1.900  0.770   12.000    Y    Y      Y    ps_6-31g*
  C42       1.949  1.900  0.770   12.000    Y    Y      Y    ps_6-31g*
  C43       1.949  1.900  0.770   12.000    Y    Y      Y    ps_6-31g*
  C44       1.949  1.900  0.770   12.000    Y    Y      Y    ps_6-31g*
  C45       1.949  1.900  0.770   12.000    Y    Y      Y    ps_6-31g*
  C46       1.949  1.900  0.770   12.000    Y    Y      Y    ps_6-31g*
  C47       1.949  1.900  0.770   12.000    Y    Y      Y    ps_6-31g*
  C48       1.949  1.900  0.770   12.000    Y    Y      Y    ps_6-31g*
  C49       1.949  1.900  0.770   12.000    Y    Y      Y    ps_6-31g*
  C50       1.949  1.900  0.770   12.000    Y    Y      Y    ps_6-31g*
  C51       1.949  1.900  0.770   12.000    Y    Y      Y    ps_6-31g*
  C28       1.949  1.900  0.770   12.000    Y    Y      Y    ps_6-31g*
  C29       1.949  1.900  0.770   12.000    Y    Y      Y    ps_6-31g*
  C30       1.949  1.900  0.770   12.000    Y    Y      Y    ps_6-31g*
  C31       1.949  1.900  0.770   12.000    Y    Y      Y    ps_6-31g*
  C32       1.949  1.900  0.770   12.000    Y    Y      Y    ps_6-31g*
  C33       1.949  1.900  0.770   12.000    Y    Y      Y    ps_6-31g*
  C34       1.949  1.900  0.770   12.000    Y    Y      Y    ps_6-31g*
  C35       1.949  1.900  0.770   12.000    Y    Y      Y    ps_6-31g*
  O36       1.702  1.600  0.730   15.995    Y    Y      Y    ps_6-31g*
  C37       1.949  1.900  0.770   12.000    Y    Y      Y    ps_6-31g*
  O38       1.702  1.600  0.730   15.995    Y    Y      Y    ps_6-31g*
  C39       1.949  1.900  0.770   12.000    Y    Y      Y    ps_6-31g*
  H40       1.597  1.150  0.320    1.008    Y    Y      Y    ps_6-31g*
  H41       1.597  1.150  0.320    1.008    Y    Y      Y    ps_6-31g*
  H42       1.597  1.150  0.320    1.008    Y    Y      Y    ps_6-31g*
  H43       1.597  1.150  0.320    1.008    Y    Y      Y    ps_6-31g*
  H44       1.597  1.150  0.320    1.008    Y    Y      Y    ps_6-31g*
  H45       1.597  1.150  0.320    1.008    Y    Y      Y    ps_6-31g*
  H46       1.597  1.150  0.320    1.008    Y    Y      Y    ps_6-31g*
  H47       1.597  1.150  0.320    1.008    Y    Y      Y    ps_6-31g*
  H48       1.597  1.150  0.320    1.008    Y    Y      Y    ps_6-31g*
  H49       1.597  1.150  0.320    1.008    Y    Y      Y    ps_6-31g*
  H50       1.597  1.150  0.320    1.008    Y    Y      Y    ps_6-31g*
  H51       1.597  1.150  0.320    1.008    Y    Y      Y    ps_6-31g*
  H52       1.597  1.150  0.320    1.008    Y    Y      Y    ps_6-31g*
  H53       1.597  1.150  0.320    1.008    Y    Y      Y    ps_6-31g*
  H54       1.597  1.150  0.320    1.008    Y    Y      Y    ps_6-31g*
  H55       1.597  1.150  0.320    1.008    Y    Y      Y    ps_6-31g*
  H56       1.597  1.150  0.320    1.008    Y    Y      Y    ps_6-31g*
  H57       1.597  1.150  0.320    1.008    Y    Y      Y    ps_6-31g*
  H58       1.597  1.150  0.320    1.008    Y    Y      Y    ps_6-31g*
  H59       1.597  1.150  0.320    1.008    Y    Y      Y    ps_6-31g*
  H60       1.597  1.150  0.320    1.008    Y    Y      Y    ps_6-31g*
  H61       1.597  1.150  0.320    1.008    Y    Y      Y    ps_6-31g*
  H62       1.597  1.150  0.320    1.008    Y    Y      Y    ps_6-31g*
  H63       1.597  1.150  0.320    1.008    Y    Y      Y    ps_6-31g*
  H64       1.597  1.150  0.320    1.008    Y    Y      Y    ps_6-31g*
  H65       1.597  1.150  0.320    1.008    Y    Y      Y    ps_6-31g*
  H66       1.597  1.150  0.320    1.008    Y    Y      Y    ps_6-31g*
  H67       1.597  1.150  0.320    1.008    Y    Y      Y    ps_6-31g*
  H68       1.597  1.150  0.320    1.008    Y    Y      Y    ps_6-31g*
  H69       1.597  1.150  0.320    1.008    Y    Y      Y    ps_6-31g*
  H70       1.597  1.150  0.320    1.008    Y    Y      Y    ps_6-31g*
  H71       1.597  1.150  0.320    1.008    Y    Y      Y    ps_6-31g*
  H72       1.597  1.150  0.320    1.008    Y    Y      Y    ps_6-31g*
  H73       1.597  1.150  0.320    1.008    Y    Y      Y    ps_6-31g*
  H74       1.597  1.150  0.320    1.008    Y    Y      Y    ps_6-31g*
  H75       1.597  1.150  0.320    1.008    Y    Y      Y    ps_6-31g*
  H76       1.597  1.150  0.320    1.008    Y    Y      Y    ps_6-31g*
  H77       1.597  1.150  0.320    1.008    Y    Y      Y    ps_6-31g*
  H78       1.597  1.150  0.320    1.008    Y    Y      Y    ps_6-31g*
  H79       1.597  1.150  0.320    1.008    Y    Y      Y    ps_6-31g*
  H80       1.597  1.150  0.320    1.008    Y    Y      Y    ps_6-31g*
  H81       1.597  1.150  0.320    1.008    Y    Y      Y    ps_6-31g*
  H82       1.597  1.150  0.320    1.008    Y    Y      Y    ps_6-31g*
  H83       1.597  1.150  0.320    1.008    Y    Y      Y    ps_6-31g*
  H84       1.597  1.150  0.320    1.008    Y    Y      Y    ps_6-31g*
  H85       1.597  1.150  0.320    1.008    Y    Y      Y    ps_6-31g*
  H86       1.597  1.150  0.320    1.008    Y    Y      Y    ps_6-31g*
  H87       1.597  1.150  0.320    1.008    Y    Y      Y    ps_6-31g*
  H88       1.597  1.150  0.320    1.008    Y    Y      Y    ps_6-31g*
  H89       1.597  1.150  0.320    1.008    Y    Y      Y    ps_6-31g*
  H90       1.597  1.150  0.320    1.008    Y    Y      Y    ps_6-31g*
  H91       1.597  1.150  0.320    1.008    Y    Y      Y    ps_6-31g*
  H92       1.597  1.150  0.320    1.008    Y    Y      Y    ps_6-31g*
 
  atom      formal  2spin      esp    mulk    frag
  P1           0       0        Y    0.000       0
  Pd2          2       0        Y    0.000       0
  N2          -1       0        Y    0.000       0
  C17         -1       0        Y    0.000       0
  
  end of program pre
   
 Time(pre)  user:       1.148  user+sys:       1.148  wallclock:       1.541
  
  start of program onee
  
  smallest eigenvalue of S:    2.980E-04
  number of canonical orbitals.....          886
  end of program onee
   
 Time(onee)  user:      11.671  user+sys:      11.671  wallclock:       8.491
  
  start of program hfig
  
  initial wavefunction generated automatically from atomic wavefunctions
  Only one state below 0.010000
  Skip d-d repulsion considerations 
 
  Irreducible     Total no   No of occupied orbitals 
  representation  orbitals   Shell_1  Shell_2    ...
  No Symm          886        205
  ------------------------
  Orbital occupation/shell    1.000
 
  end of program hfig
   
 Time(hfig)  user:       2.386  user+sys:       2.386  wallclock:       2.481
  
  start of program probe
  
  end of program probe
   
 Time(probe)  user:       1.428  user+sys:       1.428  wallclock:       1.179
  
  start of program grid
  
   grid     grid set  grid #  grid sym
  ------    --------  ------  --------
  coarse        0        0        1
  medium        2        1        1
  fine          0        0        1
  ultrafine     4        2        1
  charge       -1        3        1
  gradient      4        2        1
  density       0        0        1
  DFT-fine    -11        4        1
  DFT-med.    -10        5        1
  DFT-grad    -12        6        1
  DFT-der2     -8        7        1
  DFT-cphf     -9        8        1
  LMP2-enrg     4        2        1
  LMP2-grad     2        1        1
  DFT-cphf2   -15        9        1
  PBF-dens      0        0        1
  plotting      0        0        1
  Rel-grad    -17        0        1
  
  number of gridpoints: 
     atom           P1         Pd2          N2         C17         C18         C19         C20
  grid # 1         599         350         104          77          93          92          99
  grid # 2         428         309         381         327         324         305         387
  grid # 3           7         222           7          30          17          11           7
  grid # 4        8714        8714        8714        8714        8714        8714        8714
  grid # 5        1192        1192        1192        1192        1192        1192        1192
  grid # 6        9132        9132        5922        5922        5922        5922        5922
  grid # 7       23034       32968       13958       13950       13950       13950       13950
  grid # 8         722        1150         756         748         748         748         748
  grid # 9         366        2198         406         394         394         394         394
   
  number of gridpoints: 
     atom          C21         C22         F10         H24         H25         H26         H27
  grid # 1          92          92         584         113          97         106         115
  grid # 2         307         325         564         454         397         434         461
  grid # 3          10          21         360         291         110         151         359
  grid # 4        8714        8714        8714        8714        8714        8714        8714
  grid # 5        1192        1192        1192        1192        1192        1192        1192
  grid # 6        5922        5922        5922        5922        5922        5922        5922
  grid # 7       13950       13950       23190       15206       15206       15206       15206
  grid # 8         748         748         770         786         786         786         786
  grid # 9         394         394         420         420         420         420         420
   
  number of gridpoints: 
     atom          H15         C16         C23         C24         C25         C26         C27
  grid # 1         105          96          95          95          98          95          95
  grid # 2         427         324         323         320         338         316         322
  grid # 3         127          34          33          18           9          10          26
  grid # 4        8714        8714        8714        8714        8714        8714        8714
  grid # 5        1192        1192        1192        1192        1192        1192        1192
  grid # 6        5922        5922        5922        5922        5922        5922        5922
  grid # 7       15206       13950       13950       13950       13950       13950       13950
  grid # 8         786         748         748         748         748         748         748
  grid # 9         420         394         394         394         394         394         394
   
  number of gridpoints: 
     atom          H22         H23         H28         H29         H30          C3          C4
  grid # 1         118         117         113         106         117          79          92
  grid # 2         466         466         453         423         465         329         278
  grid # 3         412         405         283          86         398           6           6
  grid # 4        8714        8714        8714        8714        8714        8714        8714
  grid # 5        1192        1192        1192        1192        1192        1192        1192
  grid # 6        5922        5922        5922        5922        5922        5922        5922
  grid # 7       15206       15206       15206       15206       15206       13950       13950
  grid # 8         786         786         786         786         786         748         748
  grid # 9         420         420         420         420         420         394         394
   
  number of gridpoints: 
     atom           C5          C6          C7          C8          C9         C10         C11
  grid # 1          92          92          92          91          79          90          92
  grid # 2         281         281         283         277         322         280         280
  grid # 3           6           6           6           6           6           6           6
  grid # 4        8714        8714        8714        8714        8714        8714        8714
  grid # 5        1192        1192        1192        1192        1192        1192        1192
  grid # 6        5922        5922        5922        5922        5922        5922        5922
  grid # 7       13950       13950       13950       13950       13950       13950       13950
  grid # 8         748         748         748         748         748         748         748
  grid # 9         394         394         394         394         394         394         394
   
  number of gridpoints: 
     atom          C12         C13         C14         C15         C40         C41         C42
  grid # 1          92          92          90          90          98          92          96
  grid # 2         277         283         278         381         352         345         326
  grid # 3           6           6           6           7           6          15          32
  grid # 4        8714        8714        8714        8714        8714        8714        8714
  grid # 5        1192        1192        1192        1192        1192        1192        1192
  grid # 6        5922        5922        5922        5922        5922        5922        5922
  grid # 7       13950       13950       13950       13950       13950       13950       13950
  grid # 8         748         748         748         748         748         748         748
  grid # 9         394         394         394         394         394         394         394
   
  number of gridpoints: 
     atom          C43         C44         C45         C46         C47         C48         C49
  grid # 1          95          93          97          97          93          99          92
  grid # 2         326         344         350         362         326         358         325
  grid # 3          32          14           8          12          21          11          16
  grid # 4        8714        8714        8714        8714        8714        8714        8714
  grid # 5        1192        1192        1192        1192        1192        1192        1192
  grid # 6        5922        5922        5922        5922        5922        5922        5922
  grid # 7       13950       13950       13950       13950       13950       13950       13950
  grid # 8         748         748         748         748         748         748         748
  grid # 9         394         394         394         394         394         394         394
   
  number of gridpoints: 
     atom          C50         C51         C28         C29         C30         C31         C32
  grid # 1          98          91          82          81          83          91          80
  grid # 2         360         308         240         243         238         308         246
  grid # 3          10           6           6           6           6           6           6
  grid # 4        8714        8714        8714        8714        8714        8714        8714
  grid # 5        1192        1192        1192        1192        1192        1192        1192
  grid # 6        5922        5922        5922        5922        5922        5922        5922
  grid # 7       13950       13950       13950       13950       13950       13950       13950
  grid # 8         748         748         748         748         748         748         748
  grid # 9         394         394         394         394         394         394         394
   
  number of gridpoints: 
     atom          C33         C34         C35         O36         C37         O38         C39
  grid # 1          81          91          81         115          76         119          76
  grid # 2         247         304         246         434         226         453         229
  grid # 3           6           6           6          11           6          44           6
  grid # 4        8714        8714        8714        8714        8714        8714        8714
  grid # 5        1192        1192        1192        1192        1192        1192        1192
  grid # 6        5922        5922        5922        5922        5922        5922        5922
  grid # 7       13950       13950       13950       23382       13950       23382       13950
  grid # 8         748         748         748         774         748         774         748
  grid # 9         394         394         394         416         394         416         394
   
  number of gridpoints: 
     atom          H40         H41         H42         H43         H44         H45         H46
  grid # 1          99         106         103         112         110         112         110
  grid # 2         423         439         414         457         447         458         454
  grid # 3          71         148          39         320         232         331         247
  grid # 4        8714        8714        8714        8714        8714        8714        8714
  grid # 5        1192        1192        1192        1192        1192        1192        1192
  grid # 6        5922        5922        5922        5922        5922        5922        5922
  grid # 7       15206       15206       15206       15206       15206       15206       15206
  grid # 8         786         786         786         786         786         786         786
  grid # 9         420         420         420         420         420         420         420
   
  number of gridpoints: 
     atom          H47         H48         H49         H50         H51         H52         H53
  grid # 1         109         110          98          89          99          95         102
  grid # 2         447         451         409         377         413         401         426
  grid # 3         224         247          44          19          63          32         100
  grid # 4        8714        8714        8714        8714        8714        8714        8714
  grid # 5        1192        1192        1192        1192        1192        1192        1192
  grid # 6        5922        5922        5922        5922        5922        5922        5922
  grid # 7       15206       15206       15206       15206       15206       15206       15206
  grid # 8         786         786         786         786         786         786         786
  grid # 9         420         420         420         420         420         420         420
   
  number of gridpoints: 
     atom          H54         H55         H56         H57         H58         H59         H60
  grid # 1         110         111         109         112         110         111          96
  grid # 2         452         452         450         459         451         457         404
  grid # 3         243         269         223         334         251         296          23
  grid # 4        8714        8714        8714        8714        8714        8714        8714
  grid # 5        1192        1192        1192        1192        1192        1192        1192
  grid # 6        5922        5922        5922        5922        5922        5922        5922
  grid # 7       15206       15206       15206       15206       15206       15206       15206
  grid # 8         786         786         786         786         786         786         786
  grid # 9         420         420         420         420         420         420         420
   
  number of gridpoints: 
     atom          H61         H62         H63         H64         H65         H66         H67
  grid # 1         103         112         113         105         103         105         107
  grid # 2         432         447         446         426         417         429         446
  grid # 3         136         259         261         121          48          87         247
  grid # 4        8714        8714        8714        8714        8714        8714        8714
  grid # 5        1192        1192        1192        1192        1192        1192        1192
  grid # 6        5922        5922        5922        5922        5922        5922        5922
  grid # 7       15206       15206       15206       15206       15206       15206       15206
  grid # 8         786         786         786         786         786         786         786
  grid # 9         420         420         420         420         420         420         420
   
  number of gridpoints: 
     atom          H68         H69         H70         H71         H72         H73         H74
  grid # 1         107         110         104         108         102         105         108
  grid # 2         445         455         435         444         424         440         453
  grid # 3         220         320         187         237          58         242         324
  grid # 4        8714        8714        8714        8714        8714        8714        8714
  grid # 5        1192        1192        1192        1192        1192        1192        1192
  grid # 6        5922        5922        5922        5922        5922        5922        5922
  grid # 7       15206       15206       15206       15206       15206       15206       15206
  grid # 8         786         786         786         786         786         786         786
  grid # 9         420         420         420         420         420         420         420
   
  number of gridpoints: 
     atom          H75         H76         H77         H78         H79         H80         H81
  grid # 1         109         107         106         108          97         108         111
  grid # 2         448         429         439         446         404         445         459
  grid # 3         257         117         224         243          63         238         340
  grid # 4        8714        8714        8714        8714        8714        8714        8714
  grid # 5        1192        1192        1192        1192        1192        1192        1192
  grid # 6        5922        5922        5922        5922        5922        5922        5922
  grid # 7       15206       15206       15206       15206       15206       15206       15206
  grid # 8         786         786         786         786         786         786         786
  grid # 9         420         420         420         420         420         420         420
   
  number of gridpoints: 
     atom          H82         H83         H84         H85         H86         H87         H88
  grid # 1         110         108         103          96         109         110         111
  grid # 2         456         442         427         403         456         458         451
  grid # 3         324         218         118          70         312         334         304
  grid # 4        8714        8714        8714        8714        8714        8714        8714
  grid # 5        1192        1192        1192        1192        1192        1192        1192
  grid # 6        5922        5922        5922        5922        5922        5922        5922
  grid # 7       15206       15206       15206       15206       15206       15206       15206
  grid # 8         786         786         786         786         786         786         786
  grid # 9         420         420         420         420         420         420         420
   
  number of gridpoints: 
     atom          H89         H90         H91         H92       total
  grid # 1         112         112         111         111       12867
  grid # 2         449         463         451         449       44627
  grid # 3         315         367         314         304       14786
  grid # 4        8714        8714        8714        8714     1010824
  grid # 5        1192        1192        1192        1192      138272
  grid # 6        5922        5922        5922        5922      693372
  grid # 7       15206       15206       15206       15206     1753542
  grid # 8         786         786         786         786       89620
  grid # 9         420         420         420         420       49200
   
  end of program grid
   
 Time(grid)  user:    1311.928  user+sys:    1311.928  wallclock:     664.033
  
  start of program rwr
  
  end of program rwr
   
 Time(rwr)  user:      38.682  user+sys:      38.682  wallclock:      48.238
  
  start of program scf
  
 number of electrons..........        410
 number of alpha electrons....        205
 number of beta electrons.....        205
 number of orbitals, total....        886
 number of doubly-occ'd orbs..        205
 number of open shell orbs....          0
 number of occupied orbitals..        205
 number of virtual orbitals...        681
 number of hamiltonians.......          1
 number of shells.............          1
 SCF type: DFT=Becke_3_Parameter/HF+Slater+Becke88+PW91+PW-GGAIIC (B3PW91-D3)
 Energy computed using pseudospectral method.
 Convergence Criterion:
    Energy (econv):       1.00E-05
    RMS density (dconv):  5.00E-06
  
       i  u  d  i  g                   
       t  p  i  c  r                                 RMS    maximum
       e  d  i  u  i                       energy  density   DIIS  
       r  t  s  t  d       total energy    change  change    error 
  
etot    1  N  N  5  M   -2594.58724657604           1.7E-03  2.2E-01
etot    2  Y  Y  6  M   -2599.25135403818  4.7E+00  2.6E-03  1.3E-01
etot    3  Y  Y  6  M   -2600.55193775268  1.3E+00  1.0E-03  5.6E-02
etot    4  N  Y  2  U   -2600.96524477528  4.1E-01  8.0E-04  5.5E-02
etot    5  Y  Y  6  M   -2601.07632903005  1.1E-01  4.8E-04  3.4E-02
etot    6  N  Y  2  U   -2601.08421672882  7.9E-03  6.1E-04  1.9E-02
etot    7  Y  Y  6  M   -2601.09842523918  1.4E-02  9.6E-05  6.2E-03
etot    8  N  Y  2  U   -2601.10587674616  7.5E-03  3.7E-05  1.2E-03
etot    9  N  Y  2  U   -2601.10633373050  4.6E-04  8.8E-06  4.3E-04
etot   10  N  Y  2  U   -2601.10635399238  2.0E-05  4.3E-06  1.4E-04
etot   11  N  N  2  U   -2601.10636006757  6.1E-06  0.0E+00  0.0E+00
 
  Computing the dispersion energy correction and its gradients...
  
  
 Energy components, in hartrees:
   (A)  Nuclear repulsion............    9091.36945569509
   (E)  Total one-electron terms.....  -21718.73307280471
   (F)    Electron-nuclear...........  -24223.76893938097
   (H)    Kinetic....................    2505.03586657625
   (I)  Total two-electron terms.....   10026.25725704205
   (J)    Coulomb....................   10374.84400201239
   (K)    Exchange+Correlation.......    -348.58674497033
   (L)  Electronic energy............  -11692.47581576265  (E+I)
   (N0) D3 correction................      -0.23115254846
   (N)  Total energy.................   -2601.33751261602  (A+L+N0)
   (O)  Gas phase energy.............   -2601.33751261602
  
 SCFE: SCF energy: DFT(b3pw91-d3)     -2601.33751261602 hartrees   iterations:  11
  
 
 HOMO energy:    -0.15728
 LUMO energy:    -0.04038
 
  Orbital energies (hartrees): 
   -77.06237   -24.67427   -19.18379   -19.17171   -14.26648   -10.25313
   -10.24702   -10.24664   -10.23753   -10.23313   -10.20217   -10.19816
   -10.19142   -10.19010   -10.18229   -10.17808   -10.17716   -10.17656
   -10.17611   -10.17399   -10.16998   -10.16680   -10.16630   -10.16523
   -10.16445   -10.16361   -10.16324   -10.16137   -10.16105   -10.16090
   -10.16040   -10.15904   -10.15827   -10.15784   -10.15581   -10.15547
   -10.15538   -10.15350   -10.15336   -10.15187   -10.15156   -10.15121
   -10.15032   -10.14990   -10.14720   -10.14685   -10.14518   -10.14477
   -10.14000   -10.13822   -10.13603   -10.12244    -6.56553    -4.72373
    -4.72266    -4.72019    -3.32134    -2.05239    -2.05210    -2.02095
    -1.21051    -1.09102    -1.07667    -0.88299    -0.85637    -0.84707
    -0.84188    -0.83523    -0.82936    -0.80888    -0.80719    -0.79117
    -0.78651    -0.78303    -0.76350    -0.75695    -0.75213    -0.74024
    -0.73797    -0.73689    -0.72618    -0.71963    -0.71508    -0.71253
    -0.71045    -0.69136    -0.67798    -0.67589    -0.67450    -0.66497
    -0.65852    -0.63374    -0.62185    -0.62053    -0.60984    -0.60157
    -0.59807    -0.59079    -0.59037    -0.58550    -0.58450    -0.57357
    -0.56281    -0.56006    -0.55194    -0.54686    -0.54423    -0.53666
    -0.53022    -0.52847    -0.52636    -0.51770    -0.49590    -0.49012
    -0.48677    -0.47835    -0.47660    -0.47341    -0.47184    -0.46772
    -0.46059    -0.45475    -0.45112    -0.44838    -0.44576    -0.44413
    -0.44366    -0.44087    -0.43876    -0.43585    -0.43420    -0.43252
    -0.43115    -0.42789    -0.42639    -0.42474    -0.42172    -0.41909
    -0.41669    -0.41354    -0.40834    -0.40685    -0.40362    -0.40277
    -0.40051    -0.39624    -0.39418    -0.38955    -0.38502    -0.38398
    -0.38029    -0.37836    -0.37638    -0.37555    -0.37422    -0.37192
    -0.36921    -0.36732    -0.36343    -0.36189    -0.36030    -0.35757
    -0.35496    -0.35114    -0.34864    -0.34360    -0.34091    -0.33973
    -0.33867    -0.33354    -0.33258    -0.32946    -0.32843    -0.32580
    -0.32403    -0.32132    -0.32102    -0.31656    -0.31360    -0.31230
    -0.30932    -0.30803    -0.30462    -0.30310    -0.30129    -0.29898
    -0.29539    -0.29418    -0.28918    -0.28848    -0.28504    -0.28194
    -0.26416    -0.25502    -0.24963    -0.24498    -0.22842    -0.22049
    -0.21906    -0.21802    -0.21436    -0.21360    -0.19527    -0.18920
    -0.15728    -0.04038    -0.02713    -0.01159     0.00401     0.00807
     0.01256     0.02217     0.02627     0.03562     0.04057
 
  end of program scf
   
 Time(scf)  user:    1191.266  user+sys:    1191.266  wallclock:     629.678
  
  start of program der1a
  
  end of program der1a
   
 Time(der1a)  user:      34.985  user+sys:      34.985  wallclock:      18.975
  
  start of program rwr
  
  end of program rwr
   
 Time(rwr)  user:      46.347  user+sys:      46.347  wallclock:      59.769
  
  start of program der1b
  
   
  forces (hartrees/bohr) : total     
   
 atom  label           x              y              z
 ---- --------   -------------  -------------  -------------
    1 P1          2.687482E-02  -1.735156E-02   4.857541E-02
    2 Pd2        -2.979033E-03  -4.336818E-05  -1.447220E-02
    3 N2          3.612505E-04   2.306229E-02   3.798180E-02
    4 C17        -2.538692E-02  -2.904599E-02  -5.263105E-03
    5 C18         1.342941E-02   3.218911E-03   8.955681E-03
    6 C19        -7.436613E-03   2.423379E-02   6.098486E-02
    7 C20        -1.110041E-02  -2.539056E-04   1.714607E-02
    8 C21         1.449563E-02  -6.496970E-03   1.581354E-02
    9 C22         3.966707E-03   1.731933E-02   2.790360E-03
   10 F10         4.456986E-03   4.559459E-03   9.703918E-04
   11 H24        -1.527907E-03   1.698584E-03   7.740731E-04
   12 H25        -1.927123E-03   1.536700E-02   3.703330E-02
   13 H26         1.486343E-03   5.265320E-04   5.799634E-03
   14 H27         2.326925E-03  -5.790634E-04  -3.101815E-04
   15 H15         4.326912E-02  -3.684817E-03  -3.061824E-02
   16 C16         3.820902E-03   1.484422E-03   2.669481E-03
   17 C23        -2.107729E-03  -2.043231E-03  -5.912632E-04
   18 C24         9.017391E-03   4.958583E-03   1.040128E-02
   19 C25        -3.112505E-02   7.675525E-03  -2.802023E-02
   20 C26         1.278086E-02   6.112243E-04  -2.589269E-03
   21 C27        -3.395746E-03   1.621896E-03  -3.102898E-03
   22 H22        -8.162499E-03  -2.571149E-03  -5.631276E-03
   23 H23         1.449737E-04  -8.498960E-03  -5.523392E-03
   24 H28         8.302317E-03  -7.131806E-03  -1.873990E-03
   25 H29        -2.537355E-03   1.043941E-02   4.435167E-03
   26 H30        -8.254566E-03   5.706478E-03  -2.445160E-04
   27 C3          1.491410E-02   4.095154E-03  -2.179487E-02
   28 C4         -1.093416E-02  -1.275982E-02  -3.879407E-03
   29 C5          3.901503E-03  -4.025081E-03  -3.196197E-03
   30 C6          9.698868E-03   7.592922E-04  -3.400032E-03
   31 C7          2.958514E-03   2.201927E-03  -1.370757E-03
   32 C8         -3.975701E-03  -1.776404E-03  -3.214938E-02
   33 C9         -2.085201E-02   3.569639E-02  -3.359831E-02
   34 C10        -5.952891E-03  -7.099648E-03   1.449318E-03
   35 C11        -6.206547E-03   1.380066E-03   5.592329E-04
   36 C12        -4.788968E-03   7.778252E-03  -3.393027E-03
   37 C13         1.430232E-03   4.867943E-03  -2.189773E-03
   38 C14         1.013344E-02   2.874408E-03  -3.741354E-04
   39 C15        -4.008366E-03   1.900063E-03  -1.506950E-02
   40 C40        -2.595516E-03  -1.972946E-03  -4.274938E-02
   41 C41        -1.593854E-03  -1.396308E-02  -2.742753E-02
   42 C42        -2.326591E-03  -1.819944E-03  -5.472705E-03
   43 C43        -2.413048E-03  -1.605846E-03  -7.026532E-03
   44 C44        -1.782494E-02  -2.485156E-02  -1.816079E-02
   45 C45         4.057867E-03   1.391973E-02   5.611291E-02
   46 C46        -1.259414E-03   6.315454E-03   1.235803E-02
   47 C47        -3.788595E-04  -5.690241E-03   3.474078E-03
   48 C48        -4.443232E-03  -8.480570E-04  -1.184138E-02
   49 C49        -4.020313E-03  -9.927477E-03   1.206535E-03
   50 C50         5.737477E-03  -6.131585E-03   1.827506E-02
   51 C51         1.733971E-03  -8.758199E-03  -1.065276E-02
   52 C28        -3.910320E-03  -1.411559E-02  -5.544831E-04
   53 C29         7.782037E-03   5.573838E-03   1.497396E-03
   54 C30        -8.177476E-03  -1.042235E-02  -4.293596E-04
   55 C31        -3.524955E-03   9.393088E-03  -8.655026E-03
   56 C32         2.154557E-03   1.158199E-02   7.478535E-03
   57 C33        -3.346148E-03  -1.031794E-02   3.661384E-03
   58 C34        -1.063492E-03   3.350263E-03   6.987580E-03
   59 C35        -2.825089E-03   1.379426E-03   1.670700E-02
   60 O36         1.540506E-02   6.698358E-03   1.876236E-02
   61 C37        -5.279821E-03  -8.547274E-03  -1.140546E-04
   62 O38         8.306353E-03   1.307851E-02   2.601784E-02
   63 C39         2.814415E-03   5.655017E-03  -8.492875E-03
   64 H40         2.714961E-04  -7.352499E-03   2.766016E-03
   65 H41         3.682542E-03   6.582093E-03   5.015480E-03
   66 H42        -3.640652E-03   7.098571E-03  -7.939611E-03
   67 H43        -5.702529E-03   9.813730E-03   1.307090E-03
   68 H44         1.759969E-03  -4.038368E-03   8.692968E-03
   69 H45        -8.336959E-03  -2.344852E-03   7.031927E-03
   70 H46        -2.528386E-03   4.502895E-03  -8.363997E-03
   71 H47        -9.080918E-03  -4.271447E-03  -5.856703E-03
   72 H48         1.984426E-03  -4.391638E-03   8.045743E-03
   73 H49         7.755856E-03  -1.956728E-02  -1.887570E-02
   74 H50        -3.911279E-03  -5.235889E-03  -5.500257E-02
   75 H51        -1.331459E-03   3.813426E-03   1.153789E-02
   76 H52         4.233874E-03   2.181668E-03  -1.898973E-02
   77 H53         4.922099E-03   8.459794E-03   6.598898E-03
   78 H54         2.109388E-04   1.459103E-03   9.459695E-03
   79 H55         1.057869E-02  -2.058595E-03  -4.152211E-03
   80 H56         1.838625E-04  -1.758670E-03  -9.628306E-03
   81 H57         5.243576E-03  -7.585073E-03   6.521535E-03
[...]
    H50      Y     0.00068  -0.00001  -0.00670   0.00002   0.00026  -0.00003
    H50      Z    -0.00100   0.00003   0.01172  -0.00001  -0.00015   0.00001
    H51      X     0.00008   0.00003  -0.00002   0.00000  -0.00002  -0.00004
    H51      Y     0.00091   0.00001   0.00006  -0.00015   0.00004   0.00006
    H51      Z     0.00324   0.00040   0.00018  -0.00033  -0.00008  -0.00004
    H52      X     0.00067   0.00000   0.00008  -0.00001   0.00002  -0.00000
    H52      Y     0.00242   0.00003   0.00015  -0.00001  -0.00004  -0.00005
    H52      Z     0.02224   0.00016   0.00097  -0.00007  -0.00003  -0.00010
    H53      X     0.00268  -0.00006   0.00006   0.00003  -0.00000  -0.00002
    H53      Y     0.00389  -0.00003   0.00010  -0.00006  -0.00001  -0.00001
    H53      Z     0.00098  -0.00005  -0.00001   0.00000   0.00001   0.00000
    H54      X     0.00063   0.00006  -0.00001  -0.00003  -0.00000  -0.00000
    H54      Y     0.00053   0.00003  -0.00001  -0.00002   0.00001   0.00001
    H54      Z     0.00297   0.00032  -0.00007  -0.00026  -0.00001  -0.00001
    H55      X    -0.00073  -0.00006   0.00011  -0.00014  -0.00008   0.00003
    H55      Y     0.00018   0.00000  -0.00002   0.00004   0.00002   0.00000
    H55      Z     0.00024   0.00004  -0.00003   0.00006   0.00004  -0.00001
    H56      X     0.00060   0.00002  -0.00000  -0.00001   0.00001  -0.00001
    H56      Y     0.00133   0.00003  -0.00003  -0.00003   0.00000   0.00001
    H56      Z     0.00576   0.00011  -0.00007  -0.00008   0.00004   0.00000
    H57      X     0.00090   0.00003  -0.00002  -0.00008  -0.00003   0.00001
    H57      Y    -0.00156  -0.00005   0.00004   0.00015   0.00006  -0.00001
    H57      Z     0.00113   0.00002  -0.00002  -0.00007  -0.00003   0.00001
    H58      X     0.00010   0.00004  -0.00003  -0.00003  -0.00000   0.00001
    H58      Y     0.00039   0.00003   0.00000  -0.00002  -0.00000  -0.00000
    H58      Z     0.00212   0.00025  -0.00010  -0.00017  -0.00000   0.00002
    H59      X     0.00056   0.00004   0.00007   0.00003   0.00004   0.00001
    H59      Y     0.00084   0.00000   0.00012   0.00008   0.00006   0.00001
    H59      Z     0.00004   0.00002   0.00003   0.00000   0.00000  -0.00001
    H60      X     0.00268   0.00003   0.00057   0.00000   0.00001  -0.00004
    H60      Y     0.00212   0.00004   0.00044  -0.00001  -0.00001  -0.00003
    H60      Z     0.01042   0.00007   0.00263   0.00000   0.00003  -0.00026
    H61      X    -0.00280  -0.00019   0.00060   0.00010  -0.00002   0.00001
    H61      Y     0.00054   0.00003  -0.00012  -0.00002   0.00001   0.00000
    H61      Z     0.00155   0.00009  -0.00045  -0.00005   0.00002   0.00002
    H62      X     0.00013  -0.37281  -0.00054  -0.38690  -0.00016   0.00001
    H62      Y     0.00016  -0.50585  -0.00074  -0.52533  -0.00021   0.00001
    H62      Z     0.00006  -0.20778  -0.00031  -0.21108  -0.00009   0.00001
    H63      X     0.00009   0.11101   0.00026  -0.10407  -0.00003   0.00002
    H63      Y     0.00009   0.12414   0.00030  -0.11581  -0.00003   0.00002
    H63      Z     0.00054   0.66712   0.00157  -0.64114  -0.00018   0.00004
    H64      X    -0.00122  -0.00067   0.00003  -0.00058  -0.00073  -0.00059
    H64      Y     0.00054   0.00028   0.00000   0.00025   0.00033   0.00013
    H64      Z     0.00091   0.00053  -0.00002   0.00046   0.00051   0.00029
    H65      X     0.00038   0.00084   0.00040   0.00077  -0.00611  -0.00020
    H65      Y    -0.00026  -0.00065  -0.00030  -0.00058   0.00473   0.00020
    H65      Z     0.00023   0.00055   0.00025   0.00048  -0.00344  -0.00015
    H66      X     0.00000   0.00009  -0.00004  -0.00004   0.00028  -0.00002
    H66      Y     0.00004  -0.00041   0.00009  -0.00005  -0.00026  -0.00002
    H66      Z    -0.00011   0.00107  -0.00028   0.00010   0.00091   0.00006
    H67      X    -0.00000  -0.00004  -0.00001  -0.00002  -0.00008   0.00001
    H67      Y     0.00001  -0.00002   0.00003   0.00000   0.00020  -0.00001
    H67      Z    -0.00001  -0.00003  -0.00005  -0.00006  -0.00041  -0.00000
    H68      X    -0.00007  -0.00022   0.00000  -0.00006   0.00024  -0.00003
    H68      Y    -0.00001  -0.00006   0.00000   0.00006   0.00022  -0.00003
    H68      Z    -0.00002  -0.00005   0.00001   0.00004   0.00011  -0.00002
    H69      X     0.00011  -0.00001   0.00016   0.00035   0.00029  -0.00009
    H69      Y    -0.00009  -0.00001  -0.00013  -0.00023  -0.00026   0.00010
    H69      Z    -0.00010   0.00001  -0.00015  -0.00027  -0.00029   0.00009
    H70      X    -0.00001   0.00005  -0.00002   0.00002   0.00084  -0.00002
    H70      Y     0.00003  -0.00007   0.00011  -0.00002  -0.00285   0.00015
    H70      Z    -0.00006   0.00027  -0.00011   0.00011   0.00172  -0.00020
    H71      X     0.00016   0.00000   0.00038   0.00021   0.00116  -0.00003
    H71      Y    -0.00011   0.00003  -0.00028  -0.00012   0.00006  -0.00005
    H71      Z    -0.00013   0.00000  -0.00032  -0.00017  -0.00069  -0.00005
    H72      X    -0.00005  -0.00005  -0.00016  -0.00005  -0.00108  -0.00003
    H72      Y    -0.00018  -0.00022  -0.00080  -0.00016  -0.01517  -0.00014
    H72      Z     0.00003  -0.00001   0.00011   0.00000  -0.00412   0.00010
    H73      X     0.00003   0.00001   0.00002   0.00001  -0.00000  -0.00003
    H73      Y     0.00000  -0.00003   0.00002  -0.00000  -0.00001  -0.00000
    H73      Z    -0.00003  -0.00008  -0.00004  -0.00009   0.00001   0.00000
    H74      X    -0.00042   0.00001  -0.00002  -0.00035  -0.00010   0.00008
    H74      Y     0.00027  -0.00004   0.00001   0.00026   0.00006  -0.00003
    H74      Z    -0.00024   0.00002  -0.00001  -0.00018  -0.00006   0.00005
    H75      X    -0.00002   0.00003   0.00001   0.00009   0.00000  -0.00002
    H75      Y     0.00025  -0.00034  -0.00018  -0.00011   0.00003  -0.00003
    H75      Z     0.00015  -0.00016  -0.00009  -0.00002   0.00002  -0.00002
    H76      X     0.00012  -0.00027   0.00004  -0.00003  -0.00001   0.00001
    H76      Y     0.00005  -0.00023   0.00004  -0.00008   0.00001  -0.00005
    H76      Z    -0.00043   0.00099  -0.00017   0.00013   0.00005   0.00008
    H77      X     0.00013  -0.00007   0.00005  -0.00003  -0.00009   0.00004
    H77      Y    -0.00005  -0.00001   0.00001  -0.00001  -0.00005   0.00009
    H77      Z    -0.00116   0.00023  -0.00016   0.00012   0.00014  -0.00007
    H78      X     0.00040  -0.00002  -0.00008  -0.00018   0.00006   0.00004
    H78      Y    -0.00054   0.00004   0.00004   0.00018  -0.00002  -0.00011
    H78      Z     0.00049  -0.00002  -0.00004  -0.00014   0.00004   0.00005
    H79      X     0.00660  -0.00022   0.00030  -0.00019   0.00031   0.00046
    H79      Y     0.00411  -0.00015   0.00021  -0.00013   0.00015   0.00027
    H79      Z     0.00008  -0.00003   0.00002  -0.00002  -0.00004   0.00017
    H80      X    -0.00009   0.00001   0.00004   0.00001  -0.00031  -0.00006
    H80      Y     0.00006   0.00000  -0.00002   0.00000   0.00021   0.00005
    H80      Z     0.00002  -0.00000  -0.00002  -0.00001   0.00011   0.00002
    H81      X    -0.00005  -0.00015   0.00001  -0.00006  -0.00008   0.00004
    H81      Y    -0.00003  -0.00007   0.00001  -0.00003  -0.00002   0.00003
    H81      Z    -0.00005  -0.00009   0.00000  -0.00005  -0.00005   0.00002
    H82      X    -0.00003  -0.00000  -0.00002  -0.00002  -0.00004   0.00000
    H82      Y    -0.00006  -0.00002  -0.00003  -0.00006  -0.00007   0.00001
    H82      Z     0.00023  -0.00001   0.00011   0.00017   0.00026  -0.00001
    H83      X    -0.00024  -0.00005  -0.00002  -0.00010  -0.00038  -0.00026
    H83      Y     0.00011   0.00002   0.00001   0.00004   0.00012   0.00005
    H83      Z     0.00011   0.00003   0.00001   0.00005   0.00012   0.00011
    H84      X    -0.00027   0.00001  -0.00017  -0.00002  -0.00108  -0.00047
    H84      Y     0.00014  -0.00000   0.00005   0.00002   0.00049   0.00041
    H84      Z     0.00009  -0.00001   0.00005  -0.00001   0.00009   0.00012
    H85      X     0.00004  -0.00001  -0.00001  -0.00000  -0.00025   0.00027
    H85      Y     0.00006  -0.00005   0.00039  -0.00008  -0.00029  -0.00062
    H85      Z    -0.00005   0.00000  -0.00007  -0.00001   0.00002   0.00005
    H86      X    -0.00003   0.00000  -0.00001  -0.00001  -0.00023  -0.00007
    H86      Y    -0.00011  -0.00001  -0.00005  -0.00006  -0.00017   0.00004
    H86      Z     0.00036   0.00006   0.00016   0.00023   0.00093   0.00001
    H87      X     0.00017   0.01275   0.00010  -0.00836  -0.00000  -0.00001
    H87      Y     0.00019   0.01639   0.00015  -0.01079  -0.00001  -0.00002
    H87      Z    -0.00012  -0.00803  -0.00009   0.00482   0.00001   0.00001
    H88      X    -0.00013   0.01359   0.00015  -0.01138  -0.00003   0.00001
    H88      Y    -0.00001  -0.00096  -0.00001   0.00041   0.00000   0.00000
    H88      Z    -0.00004   0.00286   0.00004  -0.00231  -0.00001   0.00000
    H89      X    -0.00006  -0.00476  -0.00000   0.00369   0.00001   0.00000
    H89      Y     0.00014   0.01305  -0.00003  -0.01120  -0.00004   0.00001
    H89      Z     0.00003   0.00241  -0.00001  -0.00200  -0.00001   0.00000
    H90      X    -0.00002   0.00411   0.00002   0.00263  -0.00000   0.00000
    H90      Y    -0.00004   0.00751   0.00003   0.00491   0.00000   0.00001
    H90      Z     0.00007  -0.01799  -0.00006  -0.01272   0.00001  -0.00001
    H91      X    -0.00009  -0.00949  -0.00004  -0.00853  -0.00001   0.00002
    H91      Y     0.00002   0.00453   0.00001   0.00410  -0.00000  -0.00000
    H91      Z    -0.00006  -0.00617  -0.00002  -0.00600  -0.00001   0.00002
    H92      X     0.00000   0.00732   0.00005   0.00657   0.00004  -0.00001
    H92      Y    -0.00002  -0.00741  -0.00006  -0.00663  -0.00006   0.00001
    H92      Z    -0.00001  -0.00767  -0.00005  -0.00735  -0.00006   0.00001
  
  Number of imaginary frequencies:   0
   
  Writing vibrational animation data to red_elim_Ar_trans_L1_PL344.vib
  Writing IR vibrational spectrum data to red_elim_Ar_trans_L1_PL344_vib.spm
  rotational symmetry number:  1

  rotational temperatures (K):      0.002835      0.002681      0.002043
   
  The Quasi-Harmonic approximation will be applied to compute
  vibrational constributions to thermodynamic properties.
  Frequencies will be adjusted to a minimum value of  100.00 cm^-1.

  vibrational temperatures:
       mode:      1        2        3        4        5        6
  temp. (K):   143.88   143.88   143.88   143.88   143.88   143.88
   
       mode:      7        8        9       10       11       12
  temp. (K):   143.88   143.88   143.88   143.88   143.88   143.88
   
       mode:     13       14       15       16       17       18
  temp. (K):   143.88   143.88   143.88   143.88   143.88   143.88
   
       mode:     19       20       21       22       23       24
  temp. (K):   143.88   143.88   143.88   148.15   154.82   170.96
   
       mode:     25       26       27       28       29       30
  temp. (K):   182.49   186.94   201.50   208.01   218.76   220.91
   
       mode:     31       32       33       34       35       36
  temp. (K):   234.45   239.22   247.49   257.53   263.91   274.87
   
       mode:     37       38       39       40       41       42
  temp. (K):   281.27   292.15   300.34   319.81   324.89   333.60
   
       mode:     43       44       45       46       47       48
  temp. (K):   350.25   363.92   364.48   368.21   375.26   384.59
   
       mode:     49       50       51       52       53       54
  temp. (K):   385.91   387.12   401.81   404.46   409.57   428.83
   
       mode:     55       56       57       58       59       60
  temp. (K):   446.49   453.96   461.49   476.09   479.15   485.26
   
       mode:     61       62       63       64       65       66
  temp. (K):   490.57   499.22   503.30   513.08   549.29   552.36
   
       mode:     67       68       69       70       71       72
  temp. (K):   555.60   584.17   589.73   591.01   604.05   609.62
   
       mode:     73       74       75       76       77       78
  temp. (K):   612.26   630.82   646.68   649.68   653.69   672.81
   
       mode:     79       80       81       82       83       84
  temp. (K):   674.36   696.43   697.06   709.45   729.28   752.42
   
       mode:     85       86       87       88       89       90
  temp. (K):   759.57   766.91   795.77   807.15   817.73   834.75
   
       mode:     91       92       93       94       95       96
  temp. (K):   848.53   857.65   898.18   909.20   912.93   916.47
   
       mode:     97       98       99      100      101      102
  temp. (K):   917.64   926.56   950.44   972.54  1017.65  1021.78
   
       mode:    103      104      105      106      107      108
  temp. (K):  1043.83  1071.89  1089.93  1094.96  1115.88  1116.26
   
       mode:    109      110      111      112      113      114
  temp. (K):  1138.68  1166.87  1168.97  1173.09  1183.38  1190.11
   
       mode:    115      116      117      118      119      120
  temp. (K):  1195.50  1199.60  1203.24  1210.65  1212.83  1215.38
   
       mode:    121      122      123      124      125      126
  temp. (K):  1229.43  1246.53  1260.77  1264.82  1268.60  1303.61
   
       mode:    127      128      129      130      131      132
  temp. (K):  1309.99  1314.17  1316.70  1321.51  1323.85  1324.43
   
       mode:    133      134      135      136      137      138
  temp. (K):  1329.55  1346.16  1349.99  1363.79  1364.66  1367.85
   
       mode:    139      140      141      142      143      144
  temp. (K):  1368.87  1374.79  1383.24  1388.76  1400.74  1404.30
   
       mode:    145      146      147      148      149      150
  temp. (K):  1413.32  1416.48  1417.31  1419.72  1446.64  1477.06
   
       mode:    151      152      153      154      155      156
  temp. (K):  1480.01  1485.20  1514.96  1524.00  1528.69  1531.66
   
       mode:    157      158      159      160      161      162
  temp. (K):  1551.56  1555.79  1560.46  1572.90  1581.14  1596.30
   
       mode:    163      164      165      166      167      168
  temp. (K):  1598.45  1601.13  1607.83  1608.57  1617.77  1622.06
   
       mode:    169      170      171      172      173      174
  temp. (K):  1630.67  1642.80  1643.39  1646.71  1648.78  1655.66
   
       mode:    175      176      177      178      179      180
  temp. (K):  1661.45  1679.02  1701.56  1703.64  1717.24  1718.30
   
       mode:    181      182      183      184      185      186
  temp. (K):  1720.11  1724.42  1743.16  1744.98  1746.25  1753.04
   
       mode:    187      188      189      190      191      192
  temp. (K):  1755.06  1761.55  1768.55  1776.02  1794.31  1807.46
   
       mode:    193      194      195      196      197      198
  temp. (K):  1810.51  1838.68  1859.32  1871.63  1873.91  1881.71
   
       mode:    199      200      201      202      203      204
  temp. (K):  1884.21  1888.04  1892.71  1898.17  1898.75  1903.01
   
       mode:    205      206      207      208      209      210
  temp. (K):  1909.40  1915.17  1926.84  1929.71  1939.15  1943.58
   
       mode:    211      212      213      214      215      216
  temp. (K):  1950.56  1952.49  1962.71  1966.53  1973.81  1975.81
   
       mode:    217      218      219      220      221      222
  temp. (K):  1981.06  1982.35  1998.00  1998.98  2010.76  2013.21
   
       mode:    223      224      225      226      227      228
  temp. (K):  2016.99  2018.93  2019.26  2021.30  2025.13  2026.70
   
       mode:    229      230      231      232      233      234
  temp. (K):  2033.90  2044.25  2047.86  2051.63  2054.71  2072.89
   
       mode:    235      236      237      238      239      240
  temp. (K):  2076.00  2081.15  2098.88  2128.32  2140.77  2157.47
   
       mode:    241      242      243      244      245      246
  temp. (K):  2161.96  2165.03  2165.47  2170.07  2172.68  2173.69
   
       mode:    247      248      249      250      251      252
  temp. (K):  2174.86  2176.41  2176.98  2180.56  2180.70  2182.23
   
       mode:    253      254      255      256      257      258
  temp. (K):  2183.61  2184.08  2185.19  2187.99  2188.51  2190.53
   
       mode:    259      260      261      262      263      264
  temp. (K):  2191.78  2198.01  2200.11  2200.32  2201.26  2203.27
   
       mode:    265      266      267      268      269      270
  temp. (K):  2204.70  2205.63  2209.38  2211.23  2215.27  2217.68
   
       mode:    271      272      273      274      275      276
  temp. (K):  2220.70  2319.66  2348.07  2361.81  2362.86  2375.67
   
       mode:    277      278      279      280      281      282
  temp. (K):  2378.86  2396.14  2402.62  4345.32  4347.65  4352.69
   
       mode:    283      284      285      286      287      288
  temp. (K):  4353.39  4353.80  4354.69  4361.05  4368.33  4369.48
   
       mode:    289      290      291      292      293      294
  temp. (K):  4376.68  4377.18  4379.13  4380.44  4382.02  4383.76
   
       mode:    295      296      297      298      299      300
  temp. (K):  4392.96  4395.66  4409.32  4412.42  4426.41  4430.19
   
       mode:    301      302      303      304      305      306
  temp. (K):  4436.20  4436.63  4442.20  4442.90  4443.64  4444.59
   
       mode:    307      308      309      310      311      312
  temp. (K):  4450.76  4455.51  4456.31  4458.52  4479.10  4481.59
   
       mode:    313      314      315      316      317      318
  temp. (K):  4484.47  4492.60  4494.08  4495.43  4495.96  4498.01
   
       mode:    319      320      321      322      323      324
  temp. (K):  4499.23  4505.61  4512.79  4514.46  4522.47  4525.96
   
       mode:    325      326      327      328      329      330
  temp. (K):  4538.20  4543.12  4553.28  4554.58  4554.63  4559.54
   
       mode:    331      332      333      334      335      336
  temp. (K):  4572.04  4573.57  4589.86  4594.90  4606.24  4608.58
   
       mode:    337      338      339      340      341      342
  temp. (K):  4620.30  4630.55  4633.24  4651.73  4660.08  5037.91
   
   
  Thermodynamic properties calculated assuming an ideal gas

  In the table below, the units for temperature
  are kelvins, the units for U, H, and G are
  kcal/mol and the units for Cv and S are cal/(mol K)

  The zero point energy (ZPE):    636.976 kcal/mol
  is not included in U, H, or G in the table below
  
 
  =============================================================================
  Thermodynamic properties for P = 1.00E+00 atm, calculated at   1 temperatures


  T =   298.15 K, P = 1.00E+00 atm
   
                  U         Cv          S          H          G        ln(Q)
              =========  =========  =========  =========  =========  =========
  trans.          0.889      2.981     46.024      1.481    -12.241   20.66011
  rot.            0.889      2.981     38.967      0.889    -10.729   18.10916
  vib.           31.495    206.458    192.493     31.495    -25.897   43.70909
  elec.           0.000      0.000      0.000      0.000      0.000    0.00000
  ----------------------------------------------------------------------------
  total          33.272    212.419    277.484     33.865    -48.867   82.47836
   
   Total internal energy, Utot(SCFE + ZPE + U):   -2600.460745 hartrees
   Total enthalpy, Htot (Utot + nRT), with n=1:   -2600.459801 hartrees
    Total Gibbs free energy, Gtot (Htot - T*S):   -2600.591642 hartrees
   
  end of program freq
   
 Time(freq)  user:       0.474  user+sys:       0.474  wallclock:       0.820
  
  start of program post
  
  Writing input files for PBF
  end of program post
   
 Time(post)  user:       0.180  user+sys:       0.180  wallclock:       0.567

 Total cpu seconds     user:  248653.276   user+sys:  248653.276
  
 Total elapsed time:    142823 seconds

Job red_elim_Ar_trans_L1_PL344 completed on bp1-compute130.data.bp.acrc.priv at Sat Apr 12 05:46:47 2025
